V -t * -v 1.0a5 -a 0
A -t * -n 1 -p 0 -o 0x7fffffff -c 30 -a 1
A -t * -h 1 -m 1073741823 -s 0
n -t * -a 0 -s 0 -S UP -v circle -c black -i black
n -t * -a 1 -s 1 -S UP -v circle -c black -i black
n -t * -a 2 -s 2 -S UP -v circle -c black -i black
l -t * -s 0 -d 1 -S UP -r 10000000 -D 0.01 -c black
l -t * -s 1 -d 2 -S UP -r 1000000 -D 0.01 -c black
+ -t 0 -s 0 -d 1 -p tcp -e 40 -c 0 -i 0 -a 0 -x {0.0 2.0 0 ------- null}
- -t 0 -s 0 -d 1 -p tcp -e 40 -c 0 -i 0 -a 0 -x {0.0 2.0 0 ------- null}
h -t 0 -s 0 -d 1 -p tcp -e 40 -c 0 -i 0 -a 0 -x {0.0 2.0 -1 ------- null}
r -t 0.010032 -s 0 -d 1 -p tcp -e 40 -c 0 -i 0 -a 0 -x {0.0 2.0 0 ------- null}
+ -t 0.010032 -s 1 -d 2 -p tcp -e 40 -c 0 -i 0 -a 0 -x {0.0 2.0 0 ------- null}
- -t 0.010032 -s 1 -d 2 -p tcp -e 40 -c 0 -i 0 -a 0 -x {0.0 2.0 0 ------- null}
h -t 0.010032 -s 1 -d 2 -p tcp -e 40 -c 0 -i 0 -a 0 -x {0.0 2.0 -1 ------- null}
r -t 0.020352 -s 1 -d 2 -p tcp -e 40 -c 0 -i 0 -a 0 -x {0.0 2.0 0 ------- null}
+ -t 0.020352 -s 2 -d 1 -p ack -e 40 -c 0 -i 1 -a 0 -x {2.0 0.0 0 ------- null}
- -t 0.020352 -s 2 -d 1 -p ack -e 40 -c 0 -i 1 -a 0 -x {2.0 0.0 0 ------- null}
h -t 0.020352 -s 2 -d 1 -p ack -e 40 -c 0 -i 1 -a 0 -x {2.0 0.0 -1 ------- null}
r -t 0.030672 -s 2 -d 1 -p ack -e 40 -c 0 -i 1 -a 0 -x {2.0 0.0 0 ------- null}
+ -t 0.030672 -s 1 -d 0 -p ack -e 40 -c 0 -i 1 -a 0 -x {2.0 0.0 0 ------- null}
- -t 0.030672 -s 1 -d 0 -p ack -e 40 -c 0 -i 1 -a 0 -x {2.0 0.0 0 ------- null}
h -t 0.030672 -s 1 -d 0 -p ack -e 40 -c 0 -i 1 -a 0 -x {2.0 0.0 -1 ------- null}
r -t 0.040704 -s 1 -d 0 -p ack -e 40 -c 0 -i 1 -a 0 -x {2.0 0.0 0 ------- null}
+ -t 0.040704 -s 0 -d 1 -p tcp -e 1040 -c 0 -i 2 -a 0 -x {0.0 2.0 1 ------- null}
- -t 0.040704 -s 0 -d 1 -p tcp -e 1040 -c 0 -i 2 -a 0 -x {0.0 2.0 1 ------- null}
h -t 0.040704 -s 0 -d 1 -p tcp -e 1040 -c 0 -i 2 -a 0 -x {0.0 2.0 -1 ------- null}
+ -t 0.040704 -s 0 -d 1 -p tcp -e 1040 -c 0 -i 3 -a 0 -x {0.0 2.0 2 ------- null}
- -t 0.041536 -s 0 -d 1 -p tcp -e 1040 -c 0 -i 3 -a 0 -x {0.0 2.0 2 ------- null}
h -t 0.041536 -s 0 -d 1 -p tcp -e 1040 -c 0 -i 3 -a 0 -x {0.0 2.0 -1 ------- null}
r -t 0.051536 -s 0 -d 1 -p tcp -e 1040 -c 0 -i 2 -a 0 -x {0.0 2.0 1 ------- null}
+ -t 0.051536 -s 1 -d 2 -p tcp -e 1040 -c 0 -i 2 -a 0 -x {0.0 2.0 1 ------- null}
- -t 0.051536 -s 1 -d 2 -p tcp -e 1040 -c 0 -i 2 -a 0 -x {0.0 2.0 1 ------- null}
h -t 0.051536 -s 1 -d 2 -p tcp -e 1040 -c 0 -i 2 -a 0 -x {0.0 2.0 -1 ------- null}
r -t 0.052368 -s 0 -d 1 -p tcp -e 1040 -c 0 -i 3 -a 0 -x {0.0 2.0 2 ------- null}
+ -t 0.052368 -s 1 -d 2 -p tcp -e 1040 -c 0 -i 3 -a 0 -x {0.0 2.0 2 ------- null}
- -t 0.059856 -s 1 -d 2 -p tcp -e 1040 -c 0 -i 3 -a 0 -x {0.0 2.0 2 ------- null}
h -t 0.059856 -s 1 -d 2 -p tcp -e 1040 -c 0 -i 3 -a 0 -x {0.0 2.0 -1 ------- null}
r -t 0.069856 -s 1 -d 2 -p tcp -e 1040 -c 0 -i 2 -a 0 -x {0.0 2.0 1 ------- null}
+ -t 0.069856 -s 2 -d 1 -p ack -e 40 -c 0 -i 4 -a 0 -x {2.0 0.0 1 ------- null}
- -t 0.069856 -s 2 -d 1 -p ack -e 40 -c 0 -i 4 -a 0 -x {2.0 0.0 1 ------- null}
h -t 0.069856 -s 2 -d 1 -p ack -e 40 -c 0 -i 4 -a 0 -x {2.0 0.0 -1 ------- null}
r -t 0.078176 -s 1 -d 2 -p tcp -e 1040 -c 0 -i 3 -a 0 -x {0.0 2.0 2 ------- null}
+ -t 0.078176 -s 2 -d 1 -p ack -e 40 -c 0 -i 5 -a 0 -x {2.0 0.0 2 ------- null}
- -t 0.078176 -s 2 -d 1 -p ack -e 40 -c 0 -i 5 -a 0 -x {2.0 0.0 2 ------- null}
h -t 0.078176 -s 2 -d 1 -p ack -e 40 -c 0 -i 5 -a 0 -x {2.0 0.0 -1 ------- null}
r -t 0.080176 -s 2 -d 1 -p ack -e 40 -c 0 -i 4 -a 0 -x {2.0 0.0 1 ------- null}
+ -t 0.080176 -s 1 -d 0 -p ack -e 40 -c 0 -i 4 -a 0 -x {2.0 0.0 1 ------- null}
- -t 0.080176 -s 1 -d 0 -p ack -e 40 -c 0 -i 4 -a 0 -x {2.0 0.0 1 ------- null}
h -t 0.080176 -s 1 -d 0 -p ack -e 40 -c 0 -i 4 -a 0 -x {2.0 0.0 -1 ------- null}
r -t 0.088496 -s 2 -d 1 -p ack -e 40 -c 0 -i 5 -a 0 -x {2.0 0.0 2 ------- null}
+ -t 0.088496 -s 1 -d 0 -p ack -e 40 -c 0 -i 5 -a 0 -x {2.0 0.0 2 ------- null}
- -t 0.088496 -s 1 -d 0 -p ack -e 40 -c 0 -i 5 -a 0 -x {2.0 0.0 2 ------- null}
h -t 0.088496 -s 1 -d 0 -p ack -e 40 -c 0 -i 5 -a 0 -x {2.0 0.0 -1 ------- null}
r -t 0.090208 -s 1 -d 0 -p ack -e 40 -c 0 -i 4 -a 0 -x {2.0 0.0 1 ------- null}
+ -t 0.090208 -s 0 -d 1 -p tcp -e 1040 -c 0 -i 6 -a 0 -x {0.0 2.0 3 ------- null}
- -t 0.090208 -s 0 -d 1 -p tcp -e 1040 -c 0 -i 6 -a 0 -x {0.0 2.0 3 ------- null}
h -t 0.090208 -s 0 -d 1 -p tcp -e 1040 -c 0 -i 6 -a 0 -x {0.0 2.0 -1 ------- null}
+ -t 0.090208 -s 0 -d 1 -p tcp -e 1040 -c 0 -i 7 -a 0 -x {0.0 2.0 4 ------- null}
- -t 0.09104 -s 0 -d 1 -p tcp -e 1040 -c 0 -i 7 -a 0 -x {0.0 2.0 4 ------- null}
h -t 0.09104 -s 0 -d 1 -p tcp -e 1040 -c 0 -i 7 -a 0 -x {0.0 2.0 -1 ------- null}
r -t 0.098528 -s 1 -d 0 -p ack -e 40 -c 0 -i 5 -a 0 -x {2.0 0.0 2 ------- null}
+ -t 0.098528 -s 0 -d 1 -p tcp -e 1040 -c 0 -i 8 -a 0 -x {0.0 2.0 5 ------- null}
- -t 0.098528 -s 0 -d 1 -p tcp -e 1040 -c 0 -i 8 -a 0 -x {0.0 2.0 5 ------- null}
h -t 0.098528 -s 0 -d 1 -p tcp -e 1040 -c 0 -i 8 -a 0 -x {0.0 2.0 -1 ------- null}
+ -t 0.098528 -s 0 -d 1 -p tcp -e 1040 -c 0 -i 9 -a 0 -x {0.0 2.0 6 ------- null}
- -t 0.09936 -s 0 -d 1 -p tcp -e 1040 -c 0 -i 9 -a 0 -x {0.0 2.0 6 ------- null}
h -t 0.09936 -s 0 -d 1 -p tcp -e 1040 -c 0 -i 9 -a 0 -x {0.0 2.0 -1 ------- null}
r -t 0.10104 -s 0 -d 1 -p tcp -e 1040 -c 0 -i 6 -a 0 -x {0.0 2.0 3 ------- null}
+ -t 0.10104 -s 1 -d 2 -p tcp -e 1040 -c 0 -i 6 -a 0 -x {0.0 2.0 3 ------- null}
- -t 0.10104 -s 1 -d 2 -p tcp -e 1040 -c 0 -i 6 -a 0 -x {0.0 2.0 3 ------- null}
h -t 0.10104 -s 1 -d 2 -p tcp -e 1040 -c 0 -i 6 -a 0 -x {0.0 2.0 -1 ------- null}
r -t 0.101872 -s 0 -d 1 -p tcp -e 1040 -c 0 -i 7 -a 0 -x {0.0 2.0 4 ------- null}
+ -t 0.101872 -s 1 -d 2 -p tcp -e 1040 -c 0 -i 7 -a 0 -x {0.0 2.0 4 ------- null}
- -t 0.10936 -s 1 -d 2 -p tcp -e 1040 -c 0 -i 7 -a 0 -x {0.0 2.0 4 ------- null}
h -t 0.10936 -s 1 -d 2 -p tcp -e 1040 -c 0 -i 7 -a 0 -x {0.0 2.0 -1 ------- null}
r -t 0.10936 -s 0 -d 1 -p tcp -e 1040 -c 0 -i 8 -a 0 -x {0.0 2.0 5 ------- null}
+ -t 0.10936 -s 1 -d 2 -p tcp -e 1040 -c 0 -i 8 -a 0 -x {0.0 2.0 5 ------- null}
r -t 0.110192 -s 0 -d 1 -p tcp -e 1040 -c 0 -i 9 -a 0 -x {0.0 2.0 6 ------- null}
+ -t 0.110192 -s 1 -d 2 -p tcp -e 1040 -c 0 -i 9 -a 0 -x {0.0 2.0 6 ------- null}
- -t 0.11768 -s 1 -d 2 -p tcp -e 1040 -c 0 -i 8 -a 0 -x {0.0 2.0 5 ------- null}
h -t 0.11768 -s 1 -d 2 -p tcp -e 1040 -c 0 -i 8 -a 0 -x {0.0 2.0 -1 ------- null}
r -t 0.11936 -s 1 -d 2 -p tcp -e 1040 -c 0 -i 6 -a 0 -x {0.0 2.0 3 ------- null}
+ -t 0.11936 -s 2 -d 1 -p ack -e 40 -c 0 -i 10 -a 0 -x {2.0 0.0 3 ------- null}
- -t 0.11936 -s 2 -d 1 -p ack -e 40 -c 0 -i 10 -a 0 -x {2.0 0.0 3 ------- null}
h -t 0.11936 -s 2 -d 1 -p ack -e 40 -c 0 -i 10 -a 0 -x {2.0 0.0 -1 ------- null}
- -t 0.126 -s 1 -d 2 -p tcp -e 1040 -c 0 -i 9 -a 0 -x {0.0 2.0 6 ------- null}
h -t 0.126 -s 1 -d 2 -p tcp -e 1040 -c 0 -i 9 -a 0 -x {0.0 2.0 -1 ------- null}
r -t 0.12768 -s 1 -d 2 -p tcp -e 1040 -c 0 -i 7 -a 0 -x {0.0 2.0 4 ------- null}
+ -t 0.12768 -s 2 -d 1 -p ack -e 40 -c 0 -i 11 -a 0 -x {2.0 0.0 4 ------- null}
- -t 0.12768 -s 2 -d 1 -p ack -e 40 -c 0 -i 11 -a 0 -x {2.0 0.0 4 ------- null}
h -t 0.12768 -s 2 -d 1 -p ack -e 40 -c 0 -i 11 -a 0 -x {2.0 0.0 -1 ------- null}
r -t 0.12968 -s 2 -d 1 -p ack -e 40 -c 0 -i 10 -a 0 -x {2.0 0.0 3 ------- null}
+ -t 0.12968 -s 1 -d 0 -p ack -e 40 -c 0 -i 10 -a 0 -x {2.0 0.0 3 ------- null}
- -t 0.12968 -s 1 -d 0 -p ack -e 40 -c 0 -i 10 -a 0 -x {2.0 0.0 3 ------- null}
h -t 0.12968 -s 1 -d 0 -p ack -e 40 -c 0 -i 10 -a 0 -x {2.0 0.0 -1 ------- null}
r -t 0.136 -s 1 -d 2 -p tcp -e 1040 -c 0 -i 8 -a 0 -x {0.0 2.0 5 ------- null}
+ -t 0.136 -s 2 -d 1 -p ack -e 40 -c 0 -i 12 -a 0 -x {2.0 0.0 5 ------- null}
- -t 0.136 -s 2 -d 1 -p ack -e 40 -c 0 -i 12 -a 0 -x {2.0 0.0 5 ------- null}
h -t 0.136 -s 2 -d 1 -p ack -e 40 -c 0 -i 12 -a 0 -x {2.0 0.0 -1 ------- null}
r -t 0.138 -s 2 -d 1 -p ack -e 40 -c 0 -i 11 -a 0 -x {2.0 0.0 4 ------- null}
+ -t 0.138 -s 1 -d 0 -p ack -e 40 -c 0 -i 11 -a 0 -x {2.0 0.0 4 ------- null}
- -t 0.138 -s 1 -d 0 -p ack -e 40 -c 0 -i 11 -a 0 -x {2.0 0.0 4 ------- null}
h -t 0.138 -s 1 -d 0 -p ack -e 40 -c 0 -i 11 -a 0 -x {2.0 0.0 -1 ------- null}
r -t 0.139712 -s 1 -d 0 -p ack -e 40 -c 0 -i 10 -a 0 -x {2.0 0.0 3 ------- null}
+ -t 0.139712 -s 0 -d 1 -p tcp -e 1040 -c 0 -i 13 -a 0 -x {0.0 2.0 7 ------- null}
- -t 0.139712 -s 0 -d 1 -p tcp -e 1040 -c 0 -i 13 -a 0 -x {0.0 2.0 7 ------- null}
h -t 0.139712 -s 0 -d 1 -p tcp -e 1040 -c 0 -i 13 -a 0 -x {0.0 2.0 -1 ------- null}
+ -t 0.139712 -s 0 -d 1 -p tcp -e 1040 -c 0 -i 14 -a 0 -x {0.0 2.0 8 ------- null}
- -t 0.140544 -s 0 -d 1 -p tcp -e 1040 -c 0 -i 14 -a 0 -x {0.0 2.0 8 ------- null}
h -t 0.140544 -s 0 -d 1 -p tcp -e 1040 -c 0 -i 14 -a 0 -x {0.0 2.0 -1 ------- null}
r -t 0.14432 -s 1 -d 2 -p tcp -e 1040 -c 0 -i 9 -a 0 -x {0.0 2.0 6 ------- null}
+ -t 0.14432 -s 2 -d 1 -p ack -e 40 -c 0 -i 15 -a 0 -x {2.0 0.0 6 ------- null}
- -t 0.14432 -s 2 -d 1 -p ack -e 40 -c 0 -i 15 -a 0 -x {2.0 0.0 6 ------- null}
h -t 0.14432 -s 2 -d 1 -p ack -e 40 -c 0 -i 15 -a 0 -x {2.0 0.0 -1 ------- null}
r -t 0.14632 -s 2 -d 1 -p ack -e 40 -c 0 -i 12 -a 0 -x {2.0 0.0 5 ------- null}
+ -t 0.14632 -s 1 -d 0 -p ack -e 40 -c 0 -i 12 -a 0 -x {2.0 0.0 5 ------- null}
- -t 0.14632 -s 1 -d 0 -p ack -e 40 -c 0 -i 12 -a 0 -x {2.0 0.0 5 ------- null}
h -t 0.14632 -s 1 -d 0 -p ack -e 40 -c 0 -i 12 -a 0 -x {2.0 0.0 -1 ------- null}
r -t 0.148032 -s 1 -d 0 -p ack -e 40 -c 0 -i 11 -a 0 -x {2.0 0.0 4 ------- null}
+ -t 0.148032 -s 0 -d 1 -p tcp -e 1040 -c 0 -i 16 -a 0 -x {0.0 2.0 9 ------- null}
- -t 0.148032 -s 0 -d 1 -p tcp -e 1040 -c 0 -i 16 -a 0 -x {0.0 2.0 9 ------- null}
h -t 0.148032 -s 0 -d 1 -p tcp -e 1040 -c 0 -i 16 -a 0 -x {0.0 2.0 -1 ------- null}
+ -t 0.148032 -s 0 -d 1 -p tcp -e 1040 -c 0 -i 17 -a 0 -x {0.0 2.0 10 ------- null}
- -t 0.148864 -s 0 -d 1 -p tcp -e 1040 -c 0 -i 17 -a 0 -x {0.0 2.0 10 ------- null}
h -t 0.148864 -s 0 -d 1 -p tcp -e 1040 -c 0 -i 17 -a 0 -x {0.0 2.0 -1 ------- null}
r -t 0.150544 -s 0 -d 1 -p tcp -e 1040 -c 0 -i 13 -a 0 -x {0.0 2.0 7 ------- null}
+ -t 0.150544 -s 1 -d 2 -p tcp -e 1040 -c 0 -i 13 -a 0 -x {0.0 2.0 7 ------- null}
- -t 0.150544 -s 1 -d 2 -p tcp -e 1040 -c 0 -i 13 -a 0 -x {0.0 2.0 7 ------- null}
h -t 0.150544 -s 1 -d 2 -p tcp -e 1040 -c 0 -i 13 -a 0 -x {0.0 2.0 -1 ------- null}
r -t 0.151376 -s 0 -d 1 -p tcp -e 1040 -c 0 -i 14 -a 0 -x {0.0 2.0 8 ------- null}
+ -t 0.151376 -s 1 -d 2 -p tcp -e 1040 -c 0 -i 14 -a 0 -x {0.0 2.0 8 ------- null}
r -t 0.15464 -s 2 -d 1 -p ack -e 40 -c 0 -i 15 -a 0 -x {2.0 0.0 6 ------- null}
+ -t 0.15464 -s 1 -d 0 -p ack -e 40 -c 0 -i 15 -a 0 -x {2.0 0.0 6 ------- null}
- -t 0.15464 -s 1 -d 0 -p ack -e 40 -c 0 -i 15 -a 0 -x {2.0 0.0 6 ------- null}
h -t 0.15464 -s 1 -d 0 -p ack -e 40 -c 0 -i 15 -a 0 -x {2.0 0.0 -1 ------- null}
r -t 0.156352 -s 1 -d 0 -p ack -e 40 -c 0 -i 12 -a 0 -x {2.0 0.0 5 ------- null}
+ -t 0.156352 -s 0 -d 1 -p tcp -e 1040 -c 0 -i 18 -a 0 -x {0.0 2.0 11 ------- null}
- -t 0.156352 -s 0 -d 1 -p tcp -e 1040 -c 0 -i 18 -a 0 -x {0.0 2.0 11 ------- null}
h -t 0.156352 -s 0 -d 1 -p tcp -e 1040 -c 0 -i 18 -a 0 -x {0.0 2.0 -1 ------- null}
+ -t 0.156352 -s 0 -d 1 -p tcp -e 1040 -c 0 -i 19 -a 0 -x {0.0 2.0 12 ------- null}
- -t 0.157184 -s 0 -d 1 -p tcp -e 1040 -c 0 -i 19 -a 0 -x {0.0 2.0 12 ------- null}
h -t 0.157184 -s 0 -d 1 -p tcp -e 1040 -c 0 -i 19 -a 0 -x {0.0 2.0 -1 ------- null}
r -t 0.158864 -s 0 -d 1 -p tcp -e 1040 -c 0 -i 16 -a 0 -x {0.0 2.0 9 ------- null}
+ -t 0.158864 -s 1 -d 2 -p tcp -e 1040 -c 0 -i 16 -a 0 -x {0.0 2.0 9 ------- null}
- -t 0.158864 -s 1 -d 2 -p tcp -e 1040 -c 0 -i 14 -a 0 -x {0.0 2.0 8 ------- null}
h -t 0.158864 -s 1 -d 2 -p tcp -e 1040 -c 0 -i 14 -a 0 -x {0.0 2.0 -1 ------- null}
r -t 0.159696 -s 0 -d 1 -p tcp -e 1040 -c 0 -i 17 -a 0 -x {0.0 2.0 10 ------- null}
+ -t 0.159696 -s 1 -d 2 -p tcp -e 1040 -c 0 -i 17 -a 0 -x {0.0 2.0 10 ------- null}
r -t 0.164672 -s 1 -d 0 -p ack -e 40 -c 0 -i 15 -a 0 -x {2.0 0.0 6 ------- null}
+ -t 0.164672 -s 0 -d 1 -p tcp -e 1040 -c 0 -i 20 -a 0 -x {0.0 2.0 13 ------- null}
- -t 0.164672 -s 0 -d 1 -p tcp -e 1040 -c 0 -i 20 -a 0 -x {0.0 2.0 13 ------- null}
h -t 0.164672 -s 0 -d 1 -p tcp -e 1040 -c 0 -i 20 -a 0 -x {0.0 2.0 -1 ------- null}
+ -t 0.164672 -s 0 -d 1 -p tcp -e 1040 -c 0 -i 21 -a 0 -x {0.0 2.0 14 ------- null}
- -t 0.165504 -s 0 -d 1 -p tcp -e 1040 -c 0 -i 21 -a 0 -x {0.0 2.0 14 ------- null}
h -t 0.165504 -s 0 -d 1 -p tcp -e 1040 -c 0 -i 21 -a 0 -x {0.0 2.0 -1 ------- null}
r -t 0.167184 -s 0 -d 1 -p tcp -e 1040 -c 0 -i 18 -a 0 -x {0.0 2.0 11 ------- null}
+ -t 0.167184 -s 1 -d 2 -p tcp -e 1040 -c 0 -i 18 -a 0 -x {0.0 2.0 11 ------- null}
- -t 0.167184 -s 1 -d 2 -p tcp -e 1040 -c 0 -i 16 -a 0 -x {0.0 2.0 9 ------- null}
h -t 0.167184 -s 1 -d 2 -p tcp -e 1040 -c 0 -i 16 -a 0 -x {0.0 2.0 -1 ------- null}
r -t 0.168016 -s 0 -d 1 -p tcp -e 1040 -c 0 -i 19 -a 0 -x {0.0 2.0 12 ------- null}
+ -t 0.168016 -s 1 -d 2 -p tcp -e 1040 -c 0 -i 19 -a 0 -x {0.0 2.0 12 ------- null}
r -t 0.168864 -s 1 -d 2 -p tcp -e 1040 -c 0 -i 13 -a 0 -x {0.0 2.0 7 ------- null}
+ -t 0.168864 -s 2 -d 1 -p ack -e 40 -c 0 -i 22 -a 0 -x {2.0 0.0 7 ------- null}
- -t 0.168864 -s 2 -d 1 -p ack -e 40 -c 0 -i 22 -a 0 -x {2.0 0.0 7 ------- null}
h -t 0.168864 -s 2 -d 1 -p ack -e 40 -c 0 -i 22 -a 0 -x {2.0 0.0 -1 ------- null}
r -t 0.175504 -s 0 -d 1 -p tcp -e 1040 -c 0 -i 20 -a 0 -x {0.0 2.0 13 ------- null}
+ -t 0.175504 -s 1 -d 2 -p tcp -e 1040 -c 0 -i 20 -a 0 -x {0.0 2.0 13 ------- null}
- -t 0.175504 -s 1 -d 2 -p tcp -e 1040 -c 0 -i 17 -a 0 -x {0.0 2.0 10 ------- null}
h -t 0.175504 -s 1 -d 2 -p tcp -e 1040 -c 0 -i 17 -a 0 -x {0.0 2.0 -1 ------- null}
r -t 0.176336 -s 0 -d 1 -p tcp -e 1040 -c 0 -i 21 -a 0 -x {0.0 2.0 14 ------- null}
+ -t 0.176336 -s 1 -d 2 -p tcp -e 1040 -c 0 -i 21 -a 0 -x {0.0 2.0 14 ------- null}
r -t 0.177184 -s 1 -d 2 -p tcp -e 1040 -c 0 -i 14 -a 0 -x {0.0 2.0 8 ------- null}
+ -t 0.177184 -s 2 -d 1 -p ack -e 40 -c 0 -i 23 -a 0 -x {2.0 0.0 8 ------- null}
- -t 0.177184 -s 2 -d 1 -p ack -e 40 -c 0 -i 23 -a 0 -x {2.0 0.0 8 ------- null}
h -t 0.177184 -s 2 -d 1 -p ack -e 40 -c 0 -i 23 -a 0 -x {2.0 0.0 -1 ------- null}
r -t 0.179184 -s 2 -d 1 -p ack -e 40 -c 0 -i 22 -a 0 -x {2.0 0.0 7 ------- null}
+ -t 0.179184 -s 1 -d 0 -p ack -e 40 -c 0 -i 22 -a 0 -x {2.0 0.0 7 ------- null}
- -t 0.179184 -s 1 -d 0 -p ack -e 40 -c 0 -i 22 -a 0 -x {2.0 0.0 7 ------- null}
h -t 0.179184 -s 1 -d 0 -p ack -e 40 -c 0 -i 22 -a 0 -x {2.0 0.0 -1 ------- null}
- -t 0.183824 -s 1 -d 2 -p tcp -e 1040 -c 0 -i 18 -a 0 -x {0.0 2.0 11 ------- null}
h -t 0.183824 -s 1 -d 2 -p tcp -e 1040 -c 0 -i 18 -a 0 -x {0.0 2.0 -1 ------- null}
r -t 0.185504 -s 1 -d 2 -p tcp -e 1040 -c 0 -i 16 -a 0 -x {0.0 2.0 9 ------- null}
+ -t 0.185504 -s 2 -d 1 -p ack -e 40 -c 0 -i 24 -a 0 -x {2.0 0.0 9 ------- null}
- -t 0.185504 -s 2 -d 1 -p ack -e 40 -c 0 -i 24 -a 0 -x {2.0 0.0 9 ------- null}
h -t 0.185504 -s 2 -d 1 -p ack -e 40 -c 0 -i 24 -a 0 -x {2.0 0.0 -1 ------- null}
r -t 0.187504 -s 2 -d 1 -p ack -e 40 -c 0 -i 23 -a 0 -x {2.0 0.0 8 ------- null}
+ -t 0.187504 -s 1 -d 0 -p ack -e 40 -c 0 -i 23 -a 0 -x {2.0 0.0 8 ------- null}
- -t 0.187504 -s 1 -d 0 -p ack -e 40 -c 0 -i 23 -a 0 -x {2.0 0.0 8 ------- null}
h -t 0.187504 -s 1 -d 0 -p ack -e 40 -c 0 -i 23 -a 0 -x {2.0 0.0 -1 ------- null}
r -t 0.189216 -s 1 -d 0 -p ack -e 40 -c 0 -i 22 -a 0 -x {2.0 0.0 7 ------- null}
+ -t 0.189216 -s 0 -d 1 -p tcp -e 1040 -c 0 -i 25 -a 0 -x {0.0 2.0 15 ------- null}
- -t 0.189216 -s 0 -d 1 -p tcp -e 1040 -c 0 -i 25 -a 0 -x {0.0 2.0 15 ------- null}
h -t 0.189216 -s 0 -d 1 -p tcp -e 1040 -c 0 -i 25 -a 0 -x {0.0 2.0 -1 ------- null}
+ -t 0.189216 -s 0 -d 1 -p tcp -e 1040 -c 0 -i 26 -a 0 -x {0.0 2.0 16 ------- null}
- -t 0.190048 -s 0 -d 1 -p tcp -e 1040 -c 0 -i 26 -a 0 -x {0.0 2.0 16 ------- null}
h -t 0.190048 -s 0 -d 1 -p tcp -e 1040 -c 0 -i 26 -a 0 -x {0.0 2.0 -1 ------- null}
- -t 0.192144 -s 1 -d 2 -p tcp -e 1040 -c 0 -i 19 -a 0 -x {0.0 2.0 12 ------- null}
h -t 0.192144 -s 1 -d 2 -p tcp -e 1040 -c 0 -i 19 -a 0 -x {0.0 2.0 -1 ------- null}
r -t 0.193824 -s 1 -d 2 -p tcp -e 1040 -c 0 -i 17 -a 0 -x {0.0 2.0 10 ------- null}
+ -t 0.193824 -s 2 -d 1 -p ack -e 40 -c 0 -i 27 -a 0 -x {2.0 0.0 10 ------- null}
- -t 0.193824 -s 2 -d 1 -p ack -e 40 -c 0 -i 27 -a 0 -x {2.0 0.0 10 ------- null}
h -t 0.193824 -s 2 -d 1 -p ack -e 40 -c 0 -i 27 -a 0 -x {2.0 0.0 -1 ------- null}
r -t 0.195824 -s 2 -d 1 -p ack -e 40 -c 0 -i 24 -a 0 -x {2.0 0.0 9 ------- null}
+ -t 0.195824 -s 1 -d 0 -p ack -e 40 -c 0 -i 24 -a 0 -x {2.0 0.0 9 ------- null}
- -t 0.195824 -s 1 -d 0 -p ack -e 40 -c 0 -i 24 -a 0 -x {2.0 0.0 9 ------- null}
h -t 0.195824 -s 1 -d 0 -p ack -e 40 -c 0 -i 24 -a 0 -x {2.0 0.0 -1 ------- null}
r -t 0.197536 -s 1 -d 0 -p ack -e 40 -c 0 -i 23 -a 0 -x {2.0 0.0 8 ------- null}
+ -t 0.197536 -s 0 -d 1 -p tcp -e 1040 -c 0 -i 28 -a 0 -x {0.0 2.0 17 ------- null}
- -t 0.197536 -s 0 -d 1 -p tcp -e 1040 -c 0 -i 28 -a 0 -x {0.0 2.0 17 ------- null}
h -t 0.197536 -s 0 -d 1 -p tcp -e 1040 -c 0 -i 28 -a 0 -x {0.0 2.0 -1 ------- null}
+ -t 0.197536 -s 0 -d 1 -p tcp -e 1040 -c 0 -i 29 -a 0 -x {0.0 2.0 18 ------- null}
- -t 0.198368 -s 0 -d 1 -p tcp -e 1040 -c 0 -i 29 -a 0 -x {0.0 2.0 18 ------- null}
h -t 0.198368 -s 0 -d 1 -p tcp -e 1040 -c 0 -i 29 -a 0 -x {0.0 2.0 -1 ------- null}
r -t 0.200048 -s 0 -d 1 -p tcp -e 1040 -c 0 -i 25 -a 0 -x {0.0 2.0 15 ------- null}
+ -t 0.200048 -s 1 -d 2 -p tcp -e 1040 -c 0 -i 25 -a 0 -x {0.0 2.0 15 ------- null}
- -t 0.200464 -s 1 -d 2 -p tcp -e 1040 -c 0 -i 20 -a 0 -x {0.0 2.0 13 ------- null}
h -t 0.200464 -s 1 -d 2 -p tcp -e 1040 -c 0 -i 20 -a 0 -x {0.0 2.0 -1 ------- null}
r -t 0.20088 -s 0 -d 1 -p tcp -e 1040 -c 0 -i 26 -a 0 -x {0.0 2.0 16 ------- null}
+ -t 0.20088 -s 1 -d 2 -p tcp -e 1040 -c 0 -i 26 -a 0 -x {0.0 2.0 16 ------- null}
r -t 0.202144 -s 1 -d 2 -p tcp -e 1040 -c 0 -i 18 -a 0 -x {0.0 2.0 11 ------- null}
+ -t 0.202144 -s 2 -d 1 -p ack -e 40 -c 0 -i 30 -a 0 -x {2.0 0.0 11 ------- null}
- -t 0.202144 -s 2 -d 1 -p ack -e 40 -c 0 -i 30 -a 0 -x {2.0 0.0 11 ------- null}
h -t 0.202144 -s 2 -d 1 -p ack -e 40 -c 0 -i 30 -a 0 -x {2.0 0.0 -1 ------- null}
r -t 0.204144 -s 2 -d 1 -p ack -e 40 -c 0 -i 27 -a 0 -x {2.0 0.0 10 ------- null}
+ -t 0.204144 -s 1 -d 0 -p ack -e 40 -c 0 -i 27 -a 0 -x {2.0 0.0 10 ------- null}
- -t 0.204144 -s 1 -d 0 -p ack -e 40 -c 0 -i 27 -a 0 -x {2.0 0.0 10 ------- null}
h -t 0.204144 -s 1 -d 0 -p ack -e 40 -c 0 -i 27 -a 0 -x {2.0 0.0 -1 ------- null}
r -t 0.205856 -s 1 -d 0 -p ack -e 40 -c 0 -i 24 -a 0 -x {2.0 0.0 9 ------- null}
+ -t 0.205856 -s 0 -d 1 -p tcp -e 1040 -c 0 -i 31 -a 0 -x {0.0 2.0 19 ------- null}
- -t 0.205856 -s 0 -d 1 -p tcp -e 1040 -c 0 -i 31 -a 0 -x {0.0 2.0 19 ------- null}
h -t 0.205856 -s 0 -d 1 -p tcp -e 1040 -c 0 -i 31 -a 0 -x {0.0 2.0 -1 ------- null}
+ -t 0.205856 -s 0 -d 1 -p tcp -e 1040 -c 0 -i 32 -a 0 -x {0.0 2.0 20 ------- null}
- -t 0.206688 -s 0 -d 1 -p tcp -e 1040 -c 0 -i 32 -a 0 -x {0.0 2.0 20 ------- null}
h -t 0.206688 -s 0 -d 1 -p tcp -e 1040 -c 0 -i 32 -a 0 -x {0.0 2.0 -1 ------- null}
r -t 0.208368 -s 0 -d 1 -p tcp -e 1040 -c 0 -i 28 -a 0 -x {0.0 2.0 17 ------- null}
+ -t 0.208368 -s 1 -d 2 -p tcp -e 1040 -c 0 -i 28 -a 0 -x {0.0 2.0 17 ------- null}
- -t 0.208784 -s 1 -d 2 -p tcp -e 1040 -c 0 -i 21 -a 0 -x {0.0 2.0 14 ------- null}
h -t 0.208784 -s 1 -d 2 -p tcp -e 1040 -c 0 -i 21 -a 0 -x {0.0 2.0 -1 ------- null}
r -t 0.2092 -s 0 -d 1 -p tcp -e 1040 -c 0 -i 29 -a 0 -x {0.0 2.0 18 ------- null}
+ -t 0.2092 -s 1 -d 2 -p tcp -e 1040 -c 0 -i 29 -a 0 -x {0.0 2.0 18 ------- null}
r -t 0.210464 -s 1 -d 2 -p tcp -e 1040 -c 0 -i 19 -a 0 -x {0.0 2.0 12 ------- null}
+ -t 0.210464 -s 2 -d 1 -p ack -e 40 -c 0 -i 33 -a 0 -x {2.0 0.0 12 ------- null}
- -t 0.210464 -s 2 -d 1 -p ack -e 40 -c 0 -i 33 -a 0 -x {2.0 0.0 12 ------- null}
h -t 0.210464 -s 2 -d 1 -p ack -e 40 -c 0 -i 33 -a 0 -x {2.0 0.0 -1 ------- null}
r -t 0.212464 -s 2 -d 1 -p ack -e 40 -c 0 -i 30 -a 0 -x {2.0 0.0 11 ------- null}
+ -t 0.212464 -s 1 -d 0 -p ack -e 40 -c 0 -i 30 -a 0 -x {2.0 0.0 11 ------- null}
- -t 0.212464 -s 1 -d 0 -p ack -e 40 -c 0 -i 30 -a 0 -x {2.0 0.0 11 ------- null}
h -t 0.212464 -s 1 -d 0 -p ack -e 40 -c 0 -i 30 -a 0 -x {2.0 0.0 -1 ------- null}
r -t 0.214176 -s 1 -d 0 -p ack -e 40 -c 0 -i 27 -a 0 -x {2.0 0.0 10 ------- null}
+ -t 0.214176 -s 0 -d 1 -p tcp -e 1040 -c 0 -i 34 -a 0 -x {0.0 2.0 21 ------- null}
- -t 0.214176 -s 0 -d 1 -p tcp -e 1040 -c 0 -i 34 -a 0 -x {0.0 2.0 21 ------- null}
h -t 0.214176 -s 0 -d 1 -p tcp -e 1040 -c 0 -i 34 -a 0 -x {0.0 2.0 -1 ------- null}
+ -t 0.214176 -s 0 -d 1 -p tcp -e 1040 -c 0 -i 35 -a 0 -x {0.0 2.0 22 ------- null}
- -t 0.215008 -s 0 -d 1 -p tcp -e 1040 -c 0 -i 35 -a 0 -x {0.0 2.0 22 ------- null}
h -t 0.215008 -s 0 -d 1 -p tcp -e 1040 -c 0 -i 35 -a 0 -x {0.0 2.0 -1 ------- null}
r -t 0.216688 -s 0 -d 1 -p tcp -e 1040 -c 0 -i 31 -a 0 -x {0.0 2.0 19 ------- null}
+ -t 0.216688 -s 1 -d 2 -p tcp -e 1040 -c 0 -i 31 -a 0 -x {0.0 2.0 19 ------- null}
- -t 0.217104 -s 1 -d 2 -p tcp -e 1040 -c 0 -i 25 -a 0 -x {0.0 2.0 15 ------- null}
h -t 0.217104 -s 1 -d 2 -p tcp -e 1040 -c 0 -i 25 -a 0 -x {0.0 2.0 -1 ------- null}
r -t 0.21752 -s 0 -d 1 -p tcp -e 1040 -c 0 -i 32 -a 0 -x {0.0 2.0 20 ------- null}
+ -t 0.21752 -s 1 -d 2 -p tcp -e 1040 -c 0 -i 32 -a 0 -x {0.0 2.0 20 ------- null}
r -t 0.218784 -s 1 -d 2 -p tcp -e 1040 -c 0 -i 20 -a 0 -x {0.0 2.0 13 ------- null}
+ -t 0.218784 -s 2 -d 1 -p ack -e 40 -c 0 -i 36 -a 0 -x {2.0 0.0 13 ------- null}
- -t 0.218784 -s 2 -d 1 -p ack -e 40 -c 0 -i 36 -a 0 -x {2.0 0.0 13 ------- null}
h -t 0.218784 -s 2 -d 1 -p ack -e 40 -c 0 -i 36 -a 0 -x {2.0 0.0 -1 ------- null}
r -t 0.220784 -s 2 -d 1 -p ack -e 40 -c 0 -i 33 -a 0 -x {2.0 0.0 12 ------- null}
+ -t 0.220784 -s 1 -d 0 -p ack -e 40 -c 0 -i 33 -a 0 -x {2.0 0.0 12 ------- null}
- -t 0.220784 -s 1 -d 0 -p ack -e 40 -c 0 -i 33 -a 0 -x {2.0 0.0 12 ------- null}
h -t 0.220784 -s 1 -d 0 -p ack -e 40 -c 0 -i 33 -a 0 -x {2.0 0.0 -1 ------- null}
r -t 0.222496 -s 1 -d 0 -p ack -e 40 -c 0 -i 30 -a 0 -x {2.0 0.0 11 ------- null}
+ -t 0.222496 -s 0 -d 1 -p tcp -e 1040 -c 0 -i 37 -a 0 -x {0.0 2.0 23 ------- null}
- -t 0.222496 -s 0 -d 1 -p tcp -e 1040 -c 0 -i 37 -a 0 -x {0.0 2.0 23 ------- null}
h -t 0.222496 -s 0 -d 1 -p tcp -e 1040 -c 0 -i 37 -a 0 -x {0.0 2.0 -1 ------- null}
+ -t 0.222496 -s 0 -d 1 -p tcp -e 1040 -c 0 -i 38 -a 0 -x {0.0 2.0 24 ------- null}
- -t 0.223328 -s 0 -d 1 -p tcp -e 1040 -c 0 -i 38 -a 0 -x {0.0 2.0 24 ------- null}
h -t 0.223328 -s 0 -d 1 -p tcp -e 1040 -c 0 -i 38 -a 0 -x {0.0 2.0 -1 ------- null}
r -t 0.225008 -s 0 -d 1 -p tcp -e 1040 -c 0 -i 34 -a 0 -x {0.0 2.0 21 ------- null}
+ -t 0.225008 -s 1 -d 2 -p tcp -e 1040 -c 0 -i 34 -a 0 -x {0.0 2.0 21 ------- null}
- -t 0.225424 -s 1 -d 2 -p tcp -e 1040 -c 0 -i 26 -a 0 -x {0.0 2.0 16 ------- null}
h -t 0.225424 -s 1 -d 2 -p tcp -e 1040 -c 0 -i 26 -a 0 -x {0.0 2.0 -1 ------- null}
r -t 0.22584 -s 0 -d 1 -p tcp -e 1040 -c 0 -i 35 -a 0 -x {0.0 2.0 22 ------- null}
+ -t 0.22584 -s 1 -d 2 -p tcp -e 1040 -c 0 -i 35 -a 0 -x {0.0 2.0 22 ------- null}
r -t 0.227104 -s 1 -d 2 -p tcp -e 1040 -c 0 -i 21 -a 0 -x {0.0 2.0 14 ------- null}
+ -t 0.227104 -s 2 -d 1 -p ack -e 40 -c 0 -i 39 -a 0 -x {2.0 0.0 14 ------- null}
- -t 0.227104 -s 2 -d 1 -p ack -e 40 -c 0 -i 39 -a 0 -x {2.0 0.0 14 ------- null}
h -t 0.227104 -s 2 -d 1 -p ack -e 40 -c 0 -i 39 -a 0 -x {2.0 0.0 -1 ------- null}
r -t 0.229104 -s 2 -d 1 -p ack -e 40 -c 0 -i 36 -a 0 -x {2.0 0.0 13 ------- null}
+ -t 0.229104 -s 1 -d 0 -p ack -e 40 -c 0 -i 36 -a 0 -x {2.0 0.0 13 ------- null}
- -t 0.229104 -s 1 -d 0 -p ack -e 40 -c 0 -i 36 -a 0 -x {2.0 0.0 13 ------- null}
h -t 0.229104 -s 1 -d 0 -p ack -e 40 -c 0 -i 36 -a 0 -x {2.0 0.0 -1 ------- null}
r -t 0.230816 -s 1 -d 0 -p ack -e 40 -c 0 -i 33 -a 0 -x {2.0 0.0 12 ------- null}
+ -t 0.230816 -s 0 -d 1 -p tcp -e 1040 -c 0 -i 40 -a 0 -x {0.0 2.0 25 ------- null}
- -t 0.230816 -s 0 -d 1 -p tcp -e 1040 -c 0 -i 40 -a 0 -x {0.0 2.0 25 ------- null}
h -t 0.230816 -s 0 -d 1 -p tcp -e 1040 -c 0 -i 40 -a 0 -x {0.0 2.0 -1 ------- null}
+ -t 0.230816 -s 0 -d 1 -p tcp -e 1040 -c 0 -i 41 -a 0 -x {0.0 2.0 26 ------- null}
- -t 0.231648 -s 0 -d 1 -p tcp -e 1040 -c 0 -i 41 -a 0 -x {0.0 2.0 26 ------- null}
h -t 0.231648 -s 0 -d 1 -p tcp -e 1040 -c 0 -i 41 -a 0 -x {0.0 2.0 -1 ------- null}
r -t 0.233328 -s 0 -d 1 -p tcp -e 1040 -c 0 -i 37 -a 0 -x {0.0 2.0 23 ------- null}
+ -t 0.233328 -s 1 -d 2 -p tcp -e 1040 -c 0 -i 37 -a 0 -x {0.0 2.0 23 ------- null}
- -t 0.233744 -s 1 -d 2 -p tcp -e 1040 -c 0 -i 28 -a 0 -x {0.0 2.0 17 ------- null}
h -t 0.233744 -s 1 -d 2 -p tcp -e 1040 -c 0 -i 28 -a 0 -x {0.0 2.0 -1 ------- null}
r -t 0.23416 -s 0 -d 1 -p tcp -e 1040 -c 0 -i 38 -a 0 -x {0.0 2.0 24 ------- null}
+ -t 0.23416 -s 1 -d 2 -p tcp -e 1040 -c 0 -i 38 -a 0 -x {0.0 2.0 24 ------- null}
r -t 0.235424 -s 1 -d 2 -p tcp -e 1040 -c 0 -i 25 -a 0 -x {0.0 2.0 15 ------- null}
+ -t 0.235424 -s 2 -d 1 -p ack -e 40 -c 0 -i 42 -a 0 -x {2.0 0.0 15 ------- null}
- -t 0.235424 -s 2 -d 1 -p ack -e 40 -c 0 -i 42 -a 0 -x {2.0 0.0 15 ------- null}
h -t 0.235424 -s 2 -d 1 -p ack -e 40 -c 0 -i 42 -a 0 -x {2.0 0.0 -1 ------- null}
r -t 0.237424 -s 2 -d 1 -p ack -e 40 -c 0 -i 39 -a 0 -x {2.0 0.0 14 ------- null}
+ -t 0.237424 -s 1 -d 0 -p ack -e 40 -c 0 -i 39 -a 0 -x {2.0 0.0 14 ------- null}
- -t 0.237424 -s 1 -d 0 -p ack -e 40 -c 0 -i 39 -a 0 -x {2.0 0.0 14 ------- null}
h -t 0.237424 -s 1 -d 0 -p ack -e 40 -c 0 -i 39 -a 0 -x {2.0 0.0 -1 ------- null}
r -t 0.239136 -s 1 -d 0 -p ack -e 40 -c 0 -i 36 -a 0 -x {2.0 0.0 13 ------- null}
+ -t 0.239136 -s 0 -d 1 -p tcp -e 1040 -c 0 -i 43 -a 0 -x {0.0 2.0 27 ------- null}
- -t 0.239136 -s 0 -d 1 -p tcp -e 1040 -c 0 -i 43 -a 0 -x {0.0 2.0 27 ------- null}
h -t 0.239136 -s 0 -d 1 -p tcp -e 1040 -c 0 -i 43 -a 0 -x {0.0 2.0 -1 ------- null}
+ -t 0.239136 -s 0 -d 1 -p tcp -e 1040 -c 0 -i 44 -a 0 -x {0.0 2.0 28 ------- null}
- -t 0.239968 -s 0 -d 1 -p tcp -e 1040 -c 0 -i 44 -a 0 -x {0.0 2.0 28 ------- null}
h -t 0.239968 -s 0 -d 1 -p tcp -e 1040 -c 0 -i 44 -a 0 -x {0.0 2.0 -1 ------- null}
r -t 0.241648 -s 0 -d 1 -p tcp -e 1040 -c 0 -i 40 -a 0 -x {0.0 2.0 25 ------- null}
+ -t 0.241648 -s 1 -d 2 -p tcp -e 1040 -c 0 -i 40 -a 0 -x {0.0 2.0 25 ------- null}
- -t 0.242064 -s 1 -d 2 -p tcp -e 1040 -c 0 -i 29 -a 0 -x {0.0 2.0 18 ------- null}
h -t 0.242064 -s 1 -d 2 -p tcp -e 1040 -c 0 -i 29 -a 0 -x {0.0 2.0 -1 ------- null}
r -t 0.24248 -s 0 -d 1 -p tcp -e 1040 -c 0 -i 41 -a 0 -x {0.0 2.0 26 ------- null}
+ -t 0.24248 -s 1 -d 2 -p tcp -e 1040 -c 0 -i 41 -a 0 -x {0.0 2.0 26 ------- null}
r -t 0.243744 -s 1 -d 2 -p tcp -e 1040 -c 0 -i 26 -a 0 -x {0.0 2.0 16 ------- null}
+ -t 0.243744 -s 2 -d 1 -p ack -e 40 -c 0 -i 45 -a 0 -x {2.0 0.0 16 ------- null}
- -t 0.243744 -s 2 -d 1 -p ack -e 40 -c 0 -i 45 -a 0 -x {2.0 0.0 16 ------- null}
h -t 0.243744 -s 2 -d 1 -p ack -e 40 -c 0 -i 45 -a 0 -x {2.0 0.0 -1 ------- null}
r -t 0.245744 -s 2 -d 1 -p ack -e 40 -c 0 -i 42 -a 0 -x {2.0 0.0 15 ------- null}
+ -t 0.245744 -s 1 -d 0 -p ack -e 40 -c 0 -i 42 -a 0 -x {2.0 0.0 15 ------- null}
- -t 0.245744 -s 1 -d 0 -p ack -e 40 -c 0 -i 42 -a 0 -x {2.0 0.0 15 ------- null}
h -t 0.245744 -s 1 -d 0 -p ack -e 40 -c 0 -i 42 -a 0 -x {2.0 0.0 -1 ------- null}
r -t 0.247456 -s 1 -d 0 -p ack -e 40 -c 0 -i 39 -a 0 -x {2.0 0.0 14 ------- null}
+ -t 0.247456 -s 0 -d 1 -p tcp -e 1040 -c 0 -i 46 -a 0 -x {0.0 2.0 29 ------- null}
- -t 0.247456 -s 0 -d 1 -p tcp -e 1040 -c 0 -i 46 -a 0 -x {0.0 2.0 29 ------- null}
h -t 0.247456 -s 0 -d 1 -p tcp -e 1040 -c 0 -i 46 -a 0 -x {0.0 2.0 -1 ------- null}
+ -t 0.247456 -s 0 -d 1 -p tcp -e 1040 -c 0 -i 47 -a 0 -x {0.0 2.0 30 ------- null}
- -t 0.248288 -s 0 -d 1 -p tcp -e 1040 -c 0 -i 47 -a 0 -x {0.0 2.0 30 ------- null}
h -t 0.248288 -s 0 -d 1 -p tcp -e 1040 -c 0 -i 47 -a 0 -x {0.0 2.0 -1 ------- null}
r -t 0.249968 -s 0 -d 1 -p tcp -e 1040 -c 0 -i 43 -a 0 -x {0.0 2.0 27 ------- null}
+ -t 0.249968 -s 1 -d 2 -p tcp -e 1040 -c 0 -i 43 -a 0 -x {0.0 2.0 27 ------- null}
- -t 0.250384 -s 1 -d 2 -p tcp -e 1040 -c 0 -i 31 -a 0 -x {0.0 2.0 19 ------- null}
h -t 0.250384 -s 1 -d 2 -p tcp -e 1040 -c 0 -i 31 -a 0 -x {0.0 2.0 -1 ------- null}
r -t 0.2508 -s 0 -d 1 -p tcp -e 1040 -c 0 -i 44 -a 0 -x {0.0 2.0 28 ------- null}
+ -t 0.2508 -s 1 -d 2 -p tcp -e 1040 -c 0 -i 44 -a 0 -x {0.0 2.0 28 ------- null}
r -t 0.252064 -s 1 -d 2 -p tcp -e 1040 -c 0 -i 28 -a 0 -x {0.0 2.0 17 ------- null}
+ -t 0.252064 -s 2 -d 1 -p ack -e 40 -c 0 -i 48 -a 0 -x {2.0 0.0 17 ------- null}
- -t 0.252064 -s 2 -d 1 -p ack -e 40 -c 0 -i 48 -a 0 -x {2.0 0.0 17 ------- null}
h -t 0.252064 -s 2 -d 1 -p ack -e 40 -c 0 -i 48 -a 0 -x {2.0 0.0 -1 ------- null}
r -t 0.254064 -s 2 -d 1 -p ack -e 40 -c 0 -i 45 -a 0 -x {2.0 0.0 16 ------- null}
+ -t 0.254064 -s 1 -d 0 -p ack -e 40 -c 0 -i 45 -a 0 -x {2.0 0.0 16 ------- null}
- -t 0.254064 -s 1 -d 0 -p ack -e 40 -c 0 -i 45 -a 0 -x {2.0 0.0 16 ------- null}
h -t 0.254064 -s 1 -d 0 -p ack -e 40 -c 0 -i 45 -a 0 -x {2.0 0.0 -1 ------- null}
r -t 0.255776 -s 1 -d 0 -p ack -e 40 -c 0 -i 42 -a 0 -x {2.0 0.0 15 ------- null}
+ -t 0.255776 -s 0 -d 1 -p tcp -e 1040 -c 0 -i 49 -a 0 -x {0.0 2.0 31 ------- null}
- -t 0.255776 -s 0 -d 1 -p tcp -e 1040 -c 0 -i 49 -a 0 -x {0.0 2.0 31 ------- null}
h -t 0.255776 -s 0 -d 1 -p tcp -e 1040 -c 0 -i 49 -a 0 -x {0.0 2.0 -1 ------- null}
+ -t 0.255776 -s 0 -d 1 -p tcp -e 1040 -c 0 -i 50 -a 0 -x {0.0 2.0 32 ------- null}
- -t 0.256608 -s 0 -d 1 -p tcp -e 1040 -c 0 -i 50 -a 0 -x {0.0 2.0 32 ------- null}
h -t 0.256608 -s 0 -d 1 -p tcp -e 1040 -c 0 -i 50 -a 0 -x {0.0 2.0 -1 ------- null}
r -t 0.258288 -s 0 -d 1 -p tcp -e 1040 -c 0 -i 46 -a 0 -x {0.0 2.0 29 ------- null}
+ -t 0.258288 -s 1 -d 2 -p tcp -e 1040 -c 0 -i 46 -a 0 -x {0.0 2.0 29 ------- null}
d -t 0.258288 -s 1 -d 2 -p tcp -e 1040 -c 0 -i 46 -a 0 -x {0.0 2.0 29 ------- null}
- -t 0.258704 -s 1 -d 2 -p tcp -e 1040 -c 0 -i 32 -a 0 -x {0.0 2.0 20 ------- null}
h -t 0.258704 -s 1 -d 2 -p tcp -e 1040 -c 0 -i 32 -a 0 -x {0.0 2.0 -1 ------- null}
r -t 0.25912 -s 0 -d 1 -p tcp -e 1040 -c 0 -i 47 -a 0 -x {0.0 2.0 30 ------- null}
+ -t 0.25912 -s 1 -d 2 -p tcp -e 1040 -c 0 -i 47 -a 0 -x {0.0 2.0 30 ------- null}