+ 0 0 1 tcp 40 ------- 0 0.0 2.0 0 0
- 0 0 1 tcp 40 ------- 0 0.0 2.0 0 0
r 0.010032 0 1 tcp 40 ------- 0 0.0 2.0 0 0
+ 0.010032 1 2 tcp 40 ------- 0 0.0 2.0 0 0
- 0.010032 1 2 tcp 40 ------- 0 0.0 2.0 0 0
r 0.020352 1 2 tcp 40 ------- 0 0.0 2.0 0 0
+ 0.020352 2 1 ack 40 ------- 0 2.0 0.0 0 1
- 0.020352 2 1 ack 40 ------- 0 2.0 0.0 0 1
r 0.030672 2 1 ack 40 ------- 0 2.0 0.0 0 1
+ 0.030672 1 0 ack 40 ------- 0 2.0 0.0 0 1
- 0.030672 1 0 ack 40 ------- 0 2.0 0.0 0 1
r 0.040704 1 0 ack 40 ------- 0 2.0 0.0 0 1
+ 0.040704 0 1 tcp 1040 ------- 0 0.0 2.0 1 2
- 0.040704 0 1 tcp 1040 ------- 0 0.0 2.0 1 2
+ 0.040704 0 1 tcp 1040 ------- 0 0.0 2.0 2 3
- 0.041536 0 1 tcp 1040 ------- 0 0.0 2.0 2 3
r 0.051536 0 1 tcp 1040 ------- 0 0.0 2.0 1 2
+ 0.051536 1 2 tcp 1040 ------- 0 0.0 2.0 1 2
- 0.051536 1 2 tcp 1040 ------- 0 0.0 2.0 1 2
r 0.052368 0 1 tcp 1040 ------- 0 0.0 2.0 2 3
+ 0.052368 1 2 tcp 1040 ------- 0 0.0 2.0 2 3
- 0.059856 1 2 tcp 1040 ------- 0 0.0 2.0 2 3
r 0.069856 1 2 tcp 1040 ------- 0 0.0 2.0 1 2
+ 0.069856 2 1 ack 40 ------- 0 2.0 0.0 1 4
- 0.069856 2 1 ack 40 ------- 0 2.0 0.0 1 4
r 0.078176 1 2 tcp 1040 ------- 0 0.0 2.0 2 3
+ 0.078176 2 1 ack 40 ------- 0 2.0 0.0 2 5
- 0.078176 2 1 ack 40 ------- 0 2.0 0.0 2 5
r 0.080176 2 1 ack 40 ------- 0 2.0 0.0 1 4
+ 0.080176 1 0 ack 40 ------- 0 2.0 0.0 1 4
- 0.080176 1 0 ack 40 ------- 0 2.0 0.0 1 4
r 0.088496 2 1 ack 40 ------- 0 2.0 0.0 2 5
+ 0.088496 1 0 ack 40 ------- 0 2.0 0.0 2 5
- 0.088496 1 0 ack 40 ------- 0 2.0 0.0 2 5
r 0.090208 1 0 ack 40 ------- 0 2.0 0.0 1 4
+ 0.090208 0 1 tcp 1040 ------- 0 0.0 2.0 3 6
- 0.090208 0 1 tcp 1040 ------- 0 0.0 2.0 3 6
+ 0.090208 0 1 tcp 1040 ------- 0 0.0 2.0 4 7
- 0.09104 0 1 tcp 1040 ------- 0 0.0 2.0 4 7
r 0.098528 1 0 ack 40 ------- 0 2.0 0.0 2 5
+ 0.098528 0 1 tcp 1040 ------- 0 0.0 2.0 5 8
- 0.098528 0 1 tcp 1040 ------- 0 0.0 2.0 5 8
+ 0.098528 0 1 tcp 1040 ------- 0 0.0 2.0 6 9
- 0.09936 0 1 tcp 1040 ------- 0 0.0 2.0 6 9
r 0.10104 0 1 tcp 1040 ------- 0 0.0 2.0 3 6
+ 0.10104 1 2 tcp 1040 ------- 0 0.0 2.0 3 6
- 0.10104 1 2 tcp 1040 ------- 0 0.0 2.0 3 6
r 0.101872 0 1 tcp 1040 ------- 0 0.0 2.0 4 7
+ 0.101872 1 2 tcp 1040 ------- 0 0.0 2.0 4 7
- 0.10936 1 2 tcp 1040 ------- 0 0.0 2.0 4 7
r 0.10936 0 1 tcp 1040 ------- 0 0.0 2.0 5 8
+ 0.10936 1 2 tcp 1040 ------- 0 0.0 2.0 5 8
r 0.110192 0 1 tcp 1040 ------- 0 0.0 2.0 6 9
+ 0.110192 1 2 tcp 1040 ------- 0 0.0 2.0 6 9
- 0.11768 1 2 tcp 1040 ------- 0 0.0 2.0 5 8
r 0.11936 1 2 tcp 1040 ------- 0 0.0 2.0 3 6
+ 0.11936 2 1 ack 40 ------- 0 2.0 0.0 3 10
- 0.11936 2 1 ack 40 ------- 0 2.0 0.0 3 10
- 0.126 1 2 tcp 1040 ------- 0 0.0 2.0 6 9
r 0.12768 1 2 tcp 1040 ------- 0 0.0 2.0 4 7
+ 0.12768 2 1 ack 40 ------- 0 2.0 0.0 4 11
- 0.12768 2 1 ack 40 ------- 0 2.0 0.0 4 11
r 0.12968 2 1 ack 40 ------- 0 2.0 0.0 3 10
+ 0.12968 1 0 ack 40 ------- 0 2.0 0.0 3 10
- 0.12968 1 0 ack 40 ------- 0 2.0 0.0 3 10
r 0.136 1 2 tcp 1040 ------- 0 0.0 2.0 5 8
+ 0.136 2 1 ack 40 ------- 0 2.0 0.0 5 12
- 0.136 2 1 ack 40 ------- 0 2.0 0.0 5 12
r 0.138 2 1 ack 40 ------- 0 2.0 0.0 4 11
+ 0.138 1 0 ack 40 ------- 0 2.0 0.0 4 11
- 0.138 1 0 ack 40 ------- 0 2.0 0.0 4 11
r 0.139712 1 0 ack 40 ------- 0 2.0 0.0 3 10
+ 0.139712 0 1 tcp 1040 ------- 0 0.0 2.0 7 13
- 0.139712 0 1 tcp 1040 ------- 0 0.0 2.0 7 13
+ 0.139712 0 1 tcp 1040 ------- 0 0.0 2.0 8 14
- 0.140544 0 1 tcp 1040 ------- 0 0.0 2.0 8 14
r 0.14432 1 2 tcp 1040 ------- 0 0.0 2.0 6 9
+ 0.14432 2 1 ack 40 ------- 0 2.0 0.0 6 15
- 0.14432 2 1 ack 40 ------- 0 2.0 0.0 6 15
r 0.14632 2 1 ack 40 ------- 0 2.0 0.0 5 12
+ 0.14632 1 0 ack 40 ------- 0 2.0 0.0 5 12
- 0.14632 1 0 ack 40 ------- 0 2.0 0.0 5 12
r 0.148032 1 0 ack 40 ------- 0 2.0 0.0 4 11
+ 0.148032 0 1 tcp 1040 ------- 0 0.0 2.0 9 16
- 0.148032 0 1 tcp 1040 ------- 0 0.0 2.0 9 16
+ 0.148032 0 1 tcp 1040 ------- 0 0.0 2.0 10 17
- 0.148864 0 1 tcp 1040 ------- 0 0.0 2.0 10 17
r 0.150544 0 1 tcp 1040 ------- 0 0.0 2.0 7 13
+ 0.150544 1 2 tcp 1040 ------- 0 0.0 2.0 7 13
- 0.150544 1 2 tcp 1040 ------- 0 0.0 2.0 7 13
r 0.151376 0 1 tcp 1040 ------- 0 0.0 2.0 8 14
+ 0.151376 1 2 tcp 1040 ------- 0 0.0 2.0 8 14
r 0.15464 2 1 ack 40 ------- 0 2.0 0.0 6 15
+ 0.15464 1 0 ack 40 ------- 0 2.0 0.0 6 15
- 0.15464 1 0 ack 40 ------- 0 2.0 0.0 6 15
r 0.156352 1 0 ack 40 ------- 0 2.0 0.0 5 12
+ 0.156352 0 1 tcp 1040 ------- 0 0.0 2.0 11 18
- 0.156352 0 1 tcp 1040 ------- 0 0.0 2.0 11 18
+ 0.156352 0 1 tcp 1040 ------- 0 0.0 2.0 12 19
- 0.157184 0 1 tcp 1040 ------- 0 0.0 2.0 12 19
r 0.158864 0 1 tcp 1040 ------- 0 0.0 2.0 9 16
+ 0.158864 1 2 tcp 1040 ------- 0 0.0 2.0 9 16
- 0.158864 1 2 tcp 1040 ------- 0 0.0 2.0 8 14
r 0.159696 0 1 tcp 1040 ------- 0 0.0 2.0 10 17
+ 0.159696 1 2 tcp 1040 ------- 0 0.0 2.0 10 17
r 0.164672 1 0 ack 40 ------- 0 2.0 0.0 6 15
+ 0.164672 0 1 tcp 1040 ------- 0 0.0 2.0 13 20
- 0.164672 0 1 tcp 1040 ------- 0 0.0 2.0 13 20
+ 0.164672 0 1 tcp 1040 ------- 0 0.0 2.0 14 21
- 0.165504 0 1 tcp 1040 ------- 0 0.0 2.0 14 21
r 0.167184 0 1 tcp 1040 ------- 0 0.0 2.0 11 18
+ 0.167184 1 2 tcp 1040 ------- 0 0.0 2.0 11 18
- 0.167184 1 2 tcp 1040 ------- 0 0.0 2.0 9 16
r 0.168016 0 1 tcp 1040 ------- 0 0.0 2.0 12 19
+ 0.168016 1 2 tcp 1040 ------- 0 0.0 2.0 12 19
r 0.168864 1 2 tcp 1040 ------- 0 0.0 2.0 7 13
+ 0.168864 2 1 ack 40 ------- 0 2.0 0.0 7 22
- 0.168864 2 1 ack 40 ------- 0 2.0 0.0 7 22
r 0.175504 0 1 tcp 1040 ------- 0 0.0 2.0 13 20
+ 0.175504 1 2 tcp 1040 ------- 0 0.0 2.0 13 20
- 0.175504 1 2 tcp 1040 ------- 0 0.0 2.0 10 17
r 0.176336 0 1 tcp 1040 ------- 0 0.0 2.0 14 21
+ 0.176336 1 2 tcp 1040 ------- 0 0.0 2.0 14 21
r 0.177184 1 2 tcp 1040 ------- 0 0.0 2.0 8 14
+ 0.177184 2 1 ack 40 ------- 0 2.0 0.0 8 23
- 0.177184 2 1 ack 40 ------- 0 2.0 0.0 8 23
r 0.179184 2 1 ack 40 ------- 0 2.0 0.0 7 22
+ 0.179184 1 0 ack 40 ------- 0 2.0 0.0 7 22
- 0.179184 1 0 ack 40 ------- 0 2.0 0.0 7 22
- 0.183824 1 2 tcp 1040 ------- 0 0.0 2.0 11 18
r 0.185504 1 2 tcp 1040 ------- 0 0.0 2.0 9 16
+ 0.185504 2 1 ack 40 ------- 0 2.0 0.0 9 24
- 0.185504 2 1 ack 40 ------- 0 2.0 0.0 9 24
r 0.187504 2 1 ack 40 ------- 0 2.0 0.0 8 23
+ 0.187504 1 0 ack 40 ------- 0 2.0 0.0 8 23
- 0.187504 1 0 ack 40 ------- 0 2.0 0.0 8 23
r 0.189216 1 0 ack 40 ------- 0 2.0 0.0 7 22
+ 0.189216 0 1 tcp 1040 ------- 0 0.0 2.0 15 25
- 0.189216 0 1 tcp 1040 ------- 0 0.0 2.0 15 25
+ 0.189216 0 1 tcp 1040 ------- 0 0.0 2.0 16 26
- 0.190048 0 1 tcp 1040 ------- 0 0.0 2.0 16 26
- 0.192144 1 2 tcp 1040 ------- 0 0.0 2.0 12 19
r 0.193824 1 2 tcp 1040 ------- 0 0.0 2.0 10 17
+ 0.193824 2 1 ack 40 ------- 0 2.0 0.0 10 27
- 0.193824 2 1 ack 40 ------- 0 2.0 0.0 10 27
r 0.195824 2 1 ack 40 ------- 0 2.0 0.0 9 24
+ 0.195824 1 0 ack 40 ------- 0 2.0 0.0 9 24
- 0.195824 1 0 ack 40 ------- 0 2.0 0.0 9 24
r 0.197536 1 0 ack 40 ------- 0 2.0 0.0 8 23
+ 0.197536 0 1 tcp 1040 ------- 0 0.0 2.0 17 28
- 0.197536 0 1 tcp 1040 ------- 0 0.0 2.0 17 28
+ 0.197536 0 1 tcp 1040 ------- 0 0.0 2.0 18 29
- 0.198368 0 1 tcp 1040 ------- 0 0.0 2.0 18 29
r 0.200048 0 1 tcp 1040 ------- 0 0.0 2.0 15 25
+ 0.200048 1 2 tcp 1040 ------- 0 0.0 2.0 15 25
- 0.200464 1 2 tcp 1040 ------- 0 0.0 2.0 13 20
r 0.20088 0 1 tcp 1040 ------- 0 0.0 2.0 16 26
+ 0.20088 1 2 tcp 1040 ------- 0 0.0 2.0 16 26
r 0.202144 1 2 tcp 1040 ------- 0 0.0 2.0 11 18
+ 0.202144 2 1 ack 40 ------- 0 2.0 0.0 11 30
- 0.202144 2 1 ack 40 ------- 0 2.0 0.0 11 30
r 0.204144 2 1 ack 40 ------- 0 2.0 0.0 10 27
+ 0.204144 1 0 ack 40 ------- 0 2.0 0.0 10 27
- 0.204144 1 0 ack 40 ------- 0 2.0 0.0 10 27
r 0.205856 1 0 ack 40 ------- 0 2.0 0.0 9 24
+ 0.205856 0 1 tcp 1040 ------- 0 0.0 2.0 19 31
- 0.205856 0 1 tcp 1040 ------- 0 0.0 2.0 19 31
+ 0.205856 0 1 tcp 1040 ------- 0 0.0 2.0 20 32
- 0.206688 0 1 tcp 1040 ------- 0 0.0 2.0 20 32
r 0.208368 0 1 tcp 1040 ------- 0 0.0 2.0 17 28
+ 0.208368 1 2 tcp 1040 ------- 0 0.0 2.0 17 28
- 0.208784 1 2 tcp 1040 ------- 0 0.0 2.0 14 21
r 0.2092 0 1 tcp 1040 ------- 0 0.0 2.0 18 29
+ 0.2092 1 2 tcp 1040 ------- 0 0.0 2.0 18 29
r 0.210464 1 2 tcp 1040 ------- 0 0.0 2.0 12 19
+ 0.210464 2 1 ack 40 ------- 0 2.0 0.0 12 33
- 0.210464 2 1 ack 40 ------- 0 2.0 0.0 12 33
r 0.212464 2 1 ack 40 ------- 0 2.0 0.0 11 30
+ 0.212464 1 0 ack 40 ------- 0 2.0 0.0 11 30
- 0.212464 1 0 ack 40 ------- 0 2.0 0.0 11 30
r 0.214176 1 0 ack 40 ------- 0 2.0 0.0 10 27
+ 0.214176 0 1 tcp 1040 ------- 0 0.0 2.0 21 34
- 0.214176 0 1 tcp 1040 ------- 0 0.0 2.0 21 34
+ 0.214176 0 1 tcp 1040 ------- 0 0.0 2.0 22 35
- 0.215008 0 1 tcp 1040 ------- 0 0.0 2.0 22 35
r 0.216688 0 1 tcp 1040 ------- 0 0.0 2.0 19 31
+ 0.216688 1 2 tcp 1040 ------- 0 0.0 2.0 19 31
- 0.217104 1 2 tcp 1040 ------- 0 0.0 2.0 15 25
r 0.21752 0 1 tcp 1040 ------- 0 0.0 2.0 20 32
+ 0.21752 1 2 tcp 1040 ------- 0 0.0 2.0 20 32
r 0.218784 1 2 tcp 1040 ------- 0 0.0 2.0 13 20
+ 0.218784 2 1 ack 40 ------- 0 2.0 0.0 13 36
- 0.218784 2 1 ack 40 ------- 0 2.0 0.0 13 36
r 0.220784 2 1 ack 40 ------- 0 2.0 0.0 12 33
+ 0.220784 1 0 ack 40 ------- 0 2.0 0.0 12 33
- 0.220784 1 0 ack 40 ------- 0 2.0 0.0 12 33
r 0.222496 1 0 ack 40 ------- 0 2.0 0.0 11 30
+ 0.222496 0 1 tcp 1040 ------- 0 0.0 2.0 23 37
- 0.222496 0 1 tcp 1040 ------- 0 0.0 2.0 23 37
+ 0.222496 0 1 tcp 1040 ------- 0 0.0 2.0 24 38
- 0.223328 0 1 tcp 1040 ------- 0 0.0 2.0 24 38
r 0.225008 0 1 tcp 1040 ------- 0 0.0 2.0 21 34
+ 0.225008 1 2 tcp 1040 ------- 0 0.0 2.0 21 34
- 0.225424 1 2 tcp 1040 ------- 0 0.0 2.0 16 26
r 0.22584 0 1 tcp 1040 ------- 0 0.0 2.0 22 35
+ 0.22584 1 2 tcp 1040 ------- 0 0.0 2.0 22 35
r 0.227104 1 2 tcp 1040 ------- 0 0.0 2.0 14 21
+ 0.227104 2 1 ack 40 ------- 0 2.0 0.0 14 39
- 0.227104 2 1 ack 40 ------- 0 2.0 0.0 14 39
r 0.229104 2 1 ack 40 ------- 0 2.0 0.0 13 36
+ 0.229104 1 0 ack 40 ------- 0 2.0 0.0 13 36
- 0.229104 1 0 ack 40 ------- 0 2.0 0.0 13 36
r 0.230816 1 0 ack 40 ------- 0 2.0 0.0 12 33
+ 0.230816 0 1 tcp 1040 ------- 0 0.0 2.0 25 40
- 0.230816 0 1 tcp 1040 ------- 0 0.0 2.0 25 40
+ 0.230816 0 1 tcp 1040 ------- 0 0.0 2.0 26 41
- 0.231648 0 1 tcp 1040 ------- 0 0.0 2.0 26 41
r 0.233328 0 1 tcp 1040 ------- 0 0.0 2.0 23 37
+ 0.233328 1 2 tcp 1040 ------- 0 0.0 2.0 23 37
- 0.233744 1 2 tcp 1040 ------- 0 0.0 2.0 17 28
r 0.23416 0 1 tcp 1040 ------- 0 0.0 2.0 24 38
+ 0.23416 1 2 tcp 1040 ------- 0 0.0 2.0 24 38
r 0.235424 1 2 tcp 1040 ------- 0 0.0 2.0 15 25
+ 0.235424 2 1 ack 40 ------- 0 2.0 0.0 15 42
- 0.235424 2 1 ack 40 ------- 0 2.0 0.0 15 42
r 0.237424 2 1 ack 40 ------- 0 2.0 0.0 14 39
+ 0.237424 1 0 ack 40 ------- 0 2.0 0.0 14 39
- 0.237424 1 0 ack 40 ------- 0 2.0 0.0 14 39
r 0.239136 1 0 ack 40 ------- 0 2.0 0.0 13 36
+ 0.239136 0 1 tcp 1040 ------- 0 0.0 2.0 27 43
- 0.239136 0 1 tcp 1040 ------- 0 0.0 2.0 27 43
+ 0.239136 0 1 tcp 1040 ------- 0 0.0 2.0 28 44
- 0.239968 0 1 tcp 1040 ------- 0 0.0 2.0 28 44
r 0.241648 0 1 tcp 1040 ------- 0 0.0 2.0 25 40
+ 0.241648 1 2 tcp 1040 ------- 0 0.0 2.0 25 40
- 0.242064 1 2 tcp 1040 ------- 0 0.0 2.0 18 29
r 0.24248 0 1 tcp 1040 ------- 0 0.0 2.0 26 41
+ 0.24248 1 2 tcp 1040 ------- 0 0.0 2.0 26 41
r 0.243744 1 2 tcp 1040 ------- 0 0.0 2.0 16 26
+ 0.243744 2 1 ack 40 ------- 0 2.0 0.0 16 45
- 0.243744 2 1 ack 40 ------- 0 2.0 0.0 16 45
r 0.245744 2 1 ack 40 ------- 0 2.0 0.0 15 42
+ 0.245744 1 0 ack 40 ------- 0 2.0 0.0 15 42
- 0.245744 1 0 ack 40 ------- 0 2.0 0.0 15 42
r 0.247456 1 0 ack 40 ------- 0 2.0 0.0 14 39
+ 0.247456 0 1 tcp 1040 ------- 0 0.0 2.0 29 46
- 0.247456 0 1 tcp 1040 ------- 0 0.0 2.0 29 46
+ 0.247456 0 1 tcp 1040 ------- 0 0.0 2.0 30 47
- 0.248288 0 1 tcp 1040 ------- 0 0.0 2.0 30 47
r 0.249968 0 1 tcp 1040 ------- 0 0.0 2.0 27 43
+ 0.249968 1 2 tcp 1040 ------- 0 0.0 2.0 27 43
- 0.250384 1 2 tcp 1040 ------- 0 0.0 2.0 19 31
r 0.2508 0 1 tcp 1040 ------- 0 0.0 2.0 28 44
+ 0.2508 1 2 tcp 1040 ------- 0 0.0 2.0 28 44
r 0.252064 1 2 tcp 1040 ------- 0 0.0 2.0 17 28
+ 0.252064 2 1 ack 40 ------- 0 2.0 0.0 17 48
- 0.252064 2 1 ack 40 ------- 0 2.0 0.0 17 48
r 0.254064 2 1 ack 40 ------- 0 2.0 0.0 16 45
+ 0.254064 1 0 ack 40 ------- 0 2.0 0.0 16 45
- 0.254064 1 0 ack 40 ------- 0 2.0 0.0 16 45
r 0.255776 1 0 ack 40 ------- 0 2.0 0.0 15 42
+ 0.255776 0 1 tcp 1040 ------- 0 0.0 2.0 31 49
- 0.255776 0 1 tcp 1040 ------- 0 0.0 2.0 31 49
+ 0.255776 0 1 tcp 1040 ------- 0 0.0 2.0 32 50
- 0.256608 0 1 tcp 1040 ------- 0 0.0 2.0 32 50
r 0.258288 0 1 tcp 1040 ------- 0 0.0 2.0 29 46
+ 0.258288 1 2 tcp 1040 ------- 0 0.0 2.0 29 46
d 0.258288 1 2 tcp 1040 ------- 0 0.0 2.0 29 46
- 0.258704 1 2 tcp 1040 ------- 0 0.0 2.0 20 32
r 0.25912 0 1 tcp 1040 ------- 0 0.0 2.0 30 47
+ 0.25912 1 2 tcp 1040 ------- 0 0.0 2.0 30 47
r 0.260384 1 2 tcp 1040 ------- 0 0.0 2.0 18 29
+ 0.260384 2 1 ack 40 ------- 0 2.0 0.0 18 51
- 0.260384 2 1 ack 40 ------- 0 2.0 0.0 18 51
r 0.262384 2 1 ack 40 ------- 0 2.0 0.0 17 48
+ 0.262384 1 0 ack 40 ------- 0 2.0 0.0 17 48
- 0.262384 1 0 ack 40 ------- 0 2.0 0.0 17 48
r 0.264096 1 0 ack 40 ------- 0 2.0 0.0 16 45
+ 0.264096 0 1 tcp 1040 ------- 0 0.0 2.0 33 52
- 0.264096 0 1 tcp 1040 ------- 0 0.0 2.0 33 52
+ 0.264096 0 1 tcp 1040 ------- 0 0.0 2.0 34 53
- 0.264928 0 1 tcp 1040 ------- 0 0.0 2.0 34 53
r 0.266608 0 1 tcp 1040 ------- 0 0.0 2.0 31 49
+ 0.266608 1 2 tcp 1040 ------- 0 0.0 2.0 31 49
d 0.266608 1 2 tcp 1040 ------- 0 0.0 2.0 31 49
- 0.267024 1 2 tcp 1040 ------- 0 0.0 2.0 21 34
r 0.26744 0 1 tcp 1040 ------- 0 0.0 2.0 32 50
+ 0.26744 1 2 tcp 1040 ------- 0 0.0 2.0 32 50
r 0.268704 1 2 tcp 1040 ------- 0 0.0 2.0 19 31
+ 0.268704 2 1 ack 40 ------- 0 2.0 0.0 19 54
- 0.268704 2 1 ack 40 ------- 0 2.0 0.0 19 54
r 0.270704 2 1 ack 40 ------- 0 2.0 0.0 18 51
+ 0.270704 1 0 ack 40 ------- 0 2.0 0.0 18 51
- 0.270704 1 0 ack 40 ------- 0 2.0 0.0 18 51
r 0.272416 1 0 ack 40 ------- 0 2.0 0.0 17 48
+ 0.272416 0 1 tcp 1040 ------- 0 0.0 2.0 35 55
- 0.272416 0 1 tcp 1040 ------- 0 0.0 2.0 35 55
+ 0.272416 0 1 tcp 1040 ------- 0 0.0 2.0 36 56
- 0.273248 0 1 tcp 1040 ------- 0 0.0 2.0 36 56
r 0.274928 0 1 tcp 1040 ------- 0 0.0 2.0 33 52
+ 0.274928 1 2 tcp 1040 ------- 0 0.0 2.0 33 52
d 0.274928 1 2 tcp 1040 ------- 0 0.0 2.0 33 52
- 0.275344 1 2 tcp 1040 ------- 0 0.0 2.0 22 35
r 0.27576 0 1 tcp 1040 ------- 0 0.0 2.0 34 53
+ 0.27576 1 2 tcp 1040 ------- 0 0.0 2.0 34 53
r 0.277024 1 2 tcp 1040 ------- 0 0.0 2.0 20 32
+ 0.277024 2 1 ack 40 ------- 0 2.0 0.0 20 57
- 0.277024 2 1 ack 40 ------- 0 2.0 0.0 20 57
r 0.279024 2 1 ack 40 ------- 0 2.0 0.0 19 54
+ 0.279024 1 0 ack 40 ------- 0 2.0 0.0 19 54
- 0.279024 1 0 ack 40 ------- 0 2.0 0.0 19 54
r 0.280736 1 0 ack 40 ------- 0 2.0 0.0 18 51
+ 0.280736 0 1 tcp 1040 ------- 0 0.0 2.0 37 58
- 0.280736 0 1 tcp 1040 ------- 0 0.0 2.0 37 58
+ 0.280736 0 1 tcp 1040 ------- 0 0.0 2.0 38 59
- 0.281568 0 1 tcp 1040 ------- 0 0.0 2.0 38 59
r 0.283248 0 1 tcp 1040 ------- 0 0.0 2.0 35 55
+ 0.283248 1 2 tcp 1040 ------- 0 0.0 2.0 35 55
d 0.283248 1 2 tcp 1040 ------- 0 0.0 2.0 35 55
- 0.283664 1 2 tcp 1040 ------- 0 0.0 2.0 23 37
r 0.28408 0 1 tcp 1040 ------- 0 0.0 2.0 36 56
+ 0.28408 1 2 tcp 1040 ------- 0 0.0 2.0 36 56
r 0.285344 1 2 tcp 1040 ------- 0 0.0 2.0 21 34
+ 0.285344 2 1 ack 40 ------- 0 2.0 0.0 21 60
- 0.285344 2 1 ack 40 ------- 0 2.0 0.0 21 60
r 0.287344 2 1 ack 40 ------- 0 2.0 0.0 20 57
+ 0.287344 1 0 ack 40 ------- 0 2.0 0.0 20 57
- 0.287344 1 0 ack 40 ------- 0 2.0 0.0 20 57
r 0.289056 1 0 ack 40 ------- 0 2.0 0.0 19 54
+ 0.289056 0 1 tcp 1040 ------- 0 0.0 2.0 39 61
- 0.289056 0 1 tcp 1040 ------- 0 0.0 2.0 39 61
r 0.291568 0 1 tcp 1040 ------- 0 0.0 2.0 37 58
+ 0.291568 1 2 tcp 1040 ------- 0 0.0 2.0 37 58
d 0.291568 1 2 tcp 1040 ------- 0 0.0 2.0 37 58
- 0.291984 1 2 tcp 1040 ------- 0 0.0 2.0 24 38
r 0.2924 0 1 tcp 1040 ------- 0 0.0 2.0 38 59
+ 0.2924 1 2 tcp 1040 ------- 0 0.0 2.0 38 59
r 0.293664 1 2 tcp 1040 ------- 0 0.0 2.0 22 35
+ 0.293664 2 1 ack 40 ------- 0 2.0 0.0 22 62
- 0.293664 2 1 ack 40 ------- 0 2.0 0.0 22 62
r 0.295664 2 1 ack 40 ------- 0 2.0 0.0 21 60
+ 0.295664 1 0 ack 40 ------- 0 2.0 0.0 21 60
- 0.295664 1 0 ack 40 ------- 0 2.0 0.0 21 60
r 0.297376 1 0 ack 40 ------- 0 2.0 0.0 20 57
+ 0.297376 0 1 tcp 1040 ------- 0 0.0 2.0 40 63
- 0.297376 0 1 tcp 1040 ------- 0 0.0 2.0 40 63
r 0.299888 0 1 tcp 1040 ------- 0 0.0 2.0 39 61
+ 0.299888 1 2 tcp 1040 ------- 0 0.0 2.0 39 61
d 0.299888 1 2 tcp 1040 ------- 0 0.0 2.0 39 61
- 0.300304 1 2 tcp 1040 ------- 0 0.0 2.0 25 40
r 0.301984 1 2 tcp 1040 ------- 0 0.0 2.0 23 37
+ 0.301984 2 1 ack 40 ------- 0 2.0 0.0 23 64
- 0.301984 2 1 ack 40 ------- 0 2.0 0.0 23 64
r 0.303984 2 1 ack 40 ------- 0 2.0 0.0 22 62
+ 0.303984 1 0 ack 40 ------- 0 2.0 0.0 22 62
- 0.303984 1 0 ack 40 ------- 0 2.0 0.0 22 62
r 0.305696 1 0 ack 40 ------- 0 2.0 0.0 21 60
+ 0.305696 0 1 tcp 1040 ------- 0 0.0 2.0 41 65
- 0.305696 0 1 tcp 1040 ------- 0 0.0 2.0 41 65
r 0.308208 0 1 tcp 1040 ------- 0 0.0 2.0 40 63
+ 0.308208 1 2 tcp 1040 ------- 0 0.0 2.0 40 63
- 0.308624 1 2 tcp 1040 ------- 0 0.0 2.0 26 41
r 0.310304 1 2 tcp 1040 ------- 0 0.0 2.0 24 38
+ 0.310304 2 1 ack 40 ------- 0 2.0 0.0 24 66
- 0.310304 2 1 ack 40 ------- 0 2.0 0.0 24 66
r 0.312304 2 1 ack 40 ------- 0 2.0 0.0 23 64
+ 0.312304 1 0 ack 40 ------- 0 2.0 0.0 23 64
- 0.312304 1 0 ack 40 ------- 0 2.0 0.0 23 64
r 0.314016 1 0 ack 40 ------- 0 2.0 0.0 22 62
+ 0.314016 0 1 tcp 1040 ------- 0 0.0 2.0 42 67
- 0.314016 0 1 tcp 1040 ------- 0 0.0 2.0 42 67
r 0.316528 0 1 tcp 1040 ------- 0 0.0 2.0 41 65
+ 0.316528 1 2 tcp 1040 ------- 0 0.0 2.0 41 65
- 0.316944 1 2 tcp 1040 ------- 0 0.0 2.0 27 43
r 0.318624 1 2 tcp 1040 ------- 0 0.0 2.0 25 40
+ 0.318624 2 1 ack 40 ------- 0 2.0 0.0 25 68
- 0.318624 2 1 ack 40 ------- 0 2.0 0.0 25 68
r 0.320624 2 1 ack 40 ------- 0 2.0 0.0 24 66
+ 0.320624 1 0 ack 40 ------- 0 2.0 0.0 24 66
- 0.320624 1 0 ack 40 ------- 0 2.0 0.0 24 66
r 0.322336 1 0 ack 40 ------- 0 2.0 0.0 23 64
+ 0.322336 0 1 tcp 1040 ------- 0 0.0 2.0 43 69
- 0.322336 0 1 tcp 1040 ------- 0 0.0 2.0 43 69
r 0.324848 0 1 tcp 1040 ------- 0 0.0 2.0 42 67
+ 0.324848 1 2 tcp 1040 ------- 0 0.0 2.0 42 67
- 0.325264 1 2 tcp 1040 ------- 0 0.0 2.0 28 44
r 0.326944 1 2 tcp 1040 ------- 0 0.0 2.0 26 41
+ 0.326944 2 1 ack 40 ------- 0 2.0 0.0 26 70
- 0.326944 2 1 ack 40 ------- 0 2.0 0.0 26 70
r 0.328944 2 1 ack 40 ------- 0 2.0 0.0 25 68
+ 0.328944 1 0 ack 40 ------- 0 2.0 0.0 25 68
- 0.328944 1 0 ack 40 ------- 0 2.0 0.0 25 68
r 0.330656 1 0 ack 40 ------- 0 2.0 0.0 24 66
+ 0.330656 0 1 tcp 1040 ------- 0 0.0 2.0 44 71
- 0.330656 0 1 tcp 1040 ------- 0 0.0 2.0 44 71
r 0.333168 0 1 tcp 1040 ------- 0 0.0 2.0 43 69
+ 0.333168 1 2 tcp 1040 ------- 0 0.0 2.0 43 69
- 0.333584 1 2 tcp 1040 ------- 0 0.0 2.0 30 47
r 0.335264 1 2 tcp 1040 ------- 0 0.0 2.0 27 43
+ 0.335264 2 1 ack 40 ------- 0 2.0 0.0 27 72
- 0.335264 2 1 ack 40 ------- 0 2.0 0.0 27 72
r 0.337264 2 1 ack 40 ------- 0 2.0 0.0 26 70
+ 0.337264 1 0 ack 40 ------- 0 2.0 0.0 26 70
- 0.337264 1 0 ack 40 ------- 0 2.0 0.0 26 70
r 0.338976 1 0 ack 40 ------- 0 2.0 0.0 25 68
+ 0.338976 0 1 tcp 1040 ------- 0 0.0 2.0 45 73
- 0.338976 0 1 tcp 1040 ------- 0 0.0 2.0 45 73
r 0.341488 0 1 tcp 1040 ------- 0 0.0 2.0 44 71
+ 0.341488 1 2 tcp 1040 ------- 0 0.0 2.0 44 71
- 0.341904 1 2 tcp 1040 ------- 0 0.0 2.0 32 50
r 0.343584 1 2 tcp 1040 ------- 0 0.0 2.0 28 44
+ 0.343584 2 1 ack 40 ------- 0 2.0 0.0 28 74
- 0.343584 2 1 ack 40 ------- 0 2.0 0.0 28 74
r 0.345584 2 1 ack 40 ------- 0 2.0 0.0 27 72
+ 0.345584 1 0 ack 40 ------- 0 2.0 0.0 27 72
- 0.345584 1 0 ack 40 ------- 0 2.0 0.0 27 72
r 0.347296 1 0 ack 40 ------- 0 2.0 0.0 26 70
+ 0.347296 0 1 tcp 1040 ------- 0 0.0 2.0 46 75
- 0.347296 0 1 tcp 1040 ------- 0 0.0 2.0 46 75
r 0.349808 0 1 tcp 1040 ------- 0 0.0 2.0 45 73
+ 0.349808 1 2 tcp 1040 ------- 0 0.0 2.0 45 73
- 0.350224 1 2 tcp 1040 ------- 0 0.0 2.0 34 53
r 0.351904 1 2 tcp 1040 ------- 0 0.0 2.0 30 47
+ 0.351904 2 1 ack 40 ------- 0 2.0 0.0 28 76
- 0.351904 2 1 ack 40 ------- 0 2.0 0.0 28 76
r 0.353904 2 1 ack 40 ------- 0 2.0 0.0 28 74
+ 0.353904 1 0 ack 40 ------- 0 2.0 0.0 28 74
- 0.353904 1 0 ack 40 ------- 0 2.0 0.0 28 74
r 0.355616 1 0 ack 40 ------- 0 2.0 0.0 27 72
+ 0.355616 0 1 tcp 1040 ------- 0 0.0 2.0 47 77
- 0.355616 0 1 tcp 1040 ------- 0 0.0 2.0 47 77
r 0.358128 0 1 tcp 1040 ------- 0 0.0 2.0 46 75
+ 0.358128 1 2 tcp 1040 ------- 0 0.0 2.0 46 75
- 0.358544 1 2 tcp 1040 ------- 0 0.0 2.0 36 56
r 0.360224 1 2 tcp 1040 ------- 0 0.0 2.0 32 50
+ 0.360224 2 1 ack 40 ------- 0 2.0 0.0 28 78
- 0.360224 2 1 ack 40 ------- 0 2.0 0.0 28 78
r 0.362224 2 1 ack 40 ------- 0 2.0 0.0 28 76
+ 0.362224 1 0 ack 40 ------- 0 2.0 0.0 28 76
- 0.362224 1 0 ack 40 ------- 0 2.0 0.0 28 76
r 0.363936 1 0 ack 40 ------- 0 2.0 0.0 28 74
+ 0.363936 0 1 tcp 1040 ------- 0 0.0 2.0 48 79
- 0.363936 0 1 tcp 1040 ------- 0 0.0 2.0 48 79
r 0.366448 0 1 tcp 1040 ------- 0 0.0 2.0 47 77
+ 0.366448 1 2 tcp 1040 ------- 0 0.0 2.0 47 77
- 0.366864 1 2 tcp 1040 ------- 0 0.0 2.0 38 59
r 0.368544 1 2 tcp 1040 ------- 0 0.0 2.0 34 53
+ 0.368544 2 1 ack 40 ------- 0 2.0 0.0 28 80
- 0.368544 2 1 ack 40 ------- 0 2.0 0.0 28 80
r 0.370544 2 1 ack 40 ------- 0 2.0 0.0 28 78
+ 0.370544 1 0 ack 40 ------- 0 2.0 0.0 28 78
- 0.370544 1 0 ack 40 ------- 0 2.0 0.0 28 78
r 0.372256 1 0 ack 40 ------- 0 2.0 0.0 28 76
r 0.374768 0 1 tcp 1040 ------- 0 0.0 2.0 48 79
+ 0.374768 1 2 tcp 1040 ------- 0 0.0 2.0 48 79
- 0.375184 1 2 tcp 1040 ------- 0 0.0 2.0 40 63
r 0.376864 1 2 tcp 1040 ------- 0 0.0 2.0 36 56
+ 0.376864 2 1 ack 40 ------- 0 2.0 0.0 28 81
- 0.376864 2 1 ack 40 ------- 0 2.0 0.0 28 81
r 0.378864 2 1 ack 40 ------- 0 2.0 0.0 28 80
+ 0.378864 1 0 ack 40 ------- 0 2.0 0.0 28 80
- 0.378864 1 0 ack 40 ------- 0 2.0 0.0 28 80
r 0.380576 1 0 ack 40 ------- 0 2.0 0.0 28 78
- 0.383504 1 2 tcp 1040 ------- 0 0.0 2.0 41 65
r 0.385184 1 2 tcp 1040 ------- 0 0.0 2.0 38 59
+ 0.385184 2 1 ack 40 ------- 0 2.0 0.0 28 82
- 0.385184 2 1 ack 40 ------- 0 2.0 0.0 28 82
r 0.387184 2 1 ack 40 ------- 0 2.0 0.0 28 81
+ 0.387184 1 0 ack 40 ------- 0 2.0 0.0 28 81
- 0.387184 1 0 ack 40 ------- 0 2.0 0.0 28 81
r 0.388896 1 0 ack 40 ------- 0 2.0 0.0 28 80
+ 0.388896 0 1 tcp 1040 ---A--- 0 0.0 2.0 29 83
- 0.388896 0 1 tcp 1040 ---A--- 0 0.0 2.0 29 83
- 0.391824 1 2 tcp 1040 ------- 0 0.0 2.0 42 67
r 0.393504 1 2 tcp 1040 ------- 0 0.0 2.0 40 63
+ 0.393504 2 1 ack 40 ------- 0 2.0 0.0 28 84
- 0.393504 2 1 ack 40 ------- 0 2.0 0.0 28 84
r 0.395504 2 1 ack 40 ------- 0 2.0 0.0 28 82
+ 0.395504 1 0 ack 40 ------- 0 2.0 0.0 28 82
- 0.395504 1 0 ack 40 ------- 0 2.0 0.0 28 82
r 0.397216 1 0 ack 40 ------- 0 2.0 0.0 28 81
r 0.399728 0 1 tcp 1040 ---A--- 0 0.0 2.0 29 83
+ 0.399728 1 2 tcp 1040 ---A--- 0 0.0 2.0 29 83
- 0.400144 1 2 tcp 1040 ------- 0 0.0 2.0 43 69
r 0.401824 1 2 tcp 1040 ------- 0 0.0 2.0 41 65
+ 0.401824 2 1 ack 40 ------- 0 2.0 0.0 28 85
- 0.401824 2 1 ack 40 ------- 0 2.0 0.0 28 85
r 0.403824 2 1 ack 40 ------- 0 2.0 0.0 28 84
+ 0.403824 1 0 ack 40 ------- 0 2.0 0.0 28 84
- 0.403824 1 0 ack 40 ------- 0 2.0 0.0 28 84
r 0.405536 1 0 ack 40 ------- 0 2.0 0.0 28 82
- 0.408464 1 2 tcp 1040 ------- 0 0.0 2.0 44 71
r 0.410144 1 2 tcp 1040 ------- 0 0.0 2.0 42 67
+ 0.410144 2 1 ack 40 ------- 0 2.0 0.0 28 86
- 0.410144 2 1 ack 40 ------- 0 2.0 0.0 28 86
r 0.412144 2 1 ack 40 ------- 0 2.0 0.0 28 85
+ 0.412144 1 0 ack 40 ------- 0 2.0 0.0 28 85
- 0.412144 1 0 ack 40 ------- 0 2.0 0.0 28 85
r 0.413856 1 0 ack 40 ------- 0 2.0 0.0 28 84
- 0.416784 1 2 tcp 1040 ------- 0 0.0 2.0 45 73
r 0.418464 1 2 tcp 1040 ------- 0 0.0 2.0 43 69
+ 0.418464 2 1 ack 40 ------- 0 2.0 0.0 28 87
- 0.418464 2 1 ack 40 ------- 0 2.0 0.0 28 87
r 0.420464 2 1 ack 40 ------- 0 2.0 0.0 28 86
+ 0.420464 1 0 ack 40 ------- 0 2.0 0.0 28 86
- 0.420464 1 0 ack 40 ------- 0 2.0 0.0 28 86
r 0.422176 1 0 ack 40 ------- 0 2.0 0.0 28 85
- 0.425104 1 2 tcp 1040 ------- 0 0.0 2.0 46 75
r 0.426784 1 2 tcp 1040 ------- 0 0.0 2.0 44 71
+ 0.426784 2 1 ack 40 ------- 0 2.0 0.0 28 88
- 0.426784 2 1 ack 40 ------- 0 2.0 0.0 28 88
r 0.428784 2 1 ack 40 ------- 0 2.0 0.0 28 87
+ 0.428784 1 0 ack 40 ------- 0 2.0 0.0 28 87
- 0.428784 1 0 ack 40 ------- 0 2.0 0.0 28 87
r 0.430496 1 0 ack 40 ------- 0 2.0 0.0 28 86
- 0.433424 1 2 tcp 1040 ------- 0 0.0 2.0 47 77
r 0.435104 1 2 tcp 1040 ------- 0 0.0 2.0 45 73
+ 0.435104 2 1 ack 40 ------- 0 2.0 0.0 28 89
- 0.435104 2 1 ack 40 ------- 0 2.0 0.0 28 89
r 0.437104 2 1 ack 40 ------- 0 2.0 0.0 28 88
+ 0.437104 1 0 ack 40 ------- 0 2.0 0.0 28 88
- 0.437104 1 0 ack 40 ------- 0 2.0 0.0 28 88
r 0.438816 1 0 ack 40 ------- 0 2.0 0.0 28 87
- 0.441744 1 2 tcp 1040 ------- 0 0.0 2.0 48 79
r 0.443424 1 2 tcp 1040 ------- 0 0.0 2.0 46 75
+ 0.443424 2 1 ack 40 ------- 0 2.0 0.0 28 90
- 0.443424 2 1 ack 40 ------- 0 2.0 0.0 28 90
r 0.445424 2 1 ack 40 ------- 0 2.0 0.0 28 89
+ 0.445424 1 0 ack 40 ------- 0 2.0 0.0 28 89
- 0.445424 1 0 ack 40 ------- 0 2.0 0.0 28 89
r 0.447136 1 0 ack 40 ------- 0 2.0 0.0 28 88
- 0.450064 1 2 tcp 1040 ---A--- 0 0.0 2.0 29 83
r 0.451744 1 2 tcp 1040 ------- 0 0.0 2.0 47 77
+ 0.451744 2 1 ack 40 ------- 0 2.0 0.0 28 91
- 0.451744 2 1 ack 40 ------- 0 2.0 0.0 28 91
r 0.453744 2 1 ack 40 ------- 0 2.0 0.0 28 90
+ 0.453744 1 0 ack 40 ------- 0 2.0 0.0 28 90
- 0.453744 1 0 ack 40 ------- 0 2.0 0.0 28 90
r 0.455456 1 0 ack 40 ------- 0 2.0 0.0 28 89
r 0.460064 1 2 tcp 1040 ------- 0 0.0 2.0 48 79
+ 0.460064 2 1 ack 40 ------- 0 2.0 0.0 28 92
- 0.460064 2 1 ack 40 ------- 0 2.0 0.0 28 92
r 0.462064 2 1 ack 40 ------- 0 2.0 0.0 28 91
+ 0.462064 1 0 ack 40 ------- 0 2.0 0.0 28 91
- 0.462064 1 0 ack 40 ------- 0 2.0 0.0 28 91
r 0.463776 1 0 ack 40 ------- 0 2.0 0.0 28 90
r 0.468384 1 2 tcp 1040 ---A--- 0 0.0 2.0 29 83
+ 0.468384 2 1 ack 40 ------- 0 2.0 0.0 30 93
- 0.468384 2 1 ack 40 ------- 0 2.0 0.0 30 93
r 0.470384 2 1 ack 40 ------- 0 2.0 0.0 28 92
+ 0.470384 1 0 ack 40 ------- 0 2.0 0.0 28 92
- 0.470384 1 0 ack 40 ------- 0 2.0 0.0 28 92
r 0.472096 1 0 ack 40 ------- 0 2.0 0.0 28 91
r 0.478704 2 1 ack 40 ------- 0 2.0 0.0 30 93
+ 0.478704 1 0 ack 40 ------- 0 2.0 0.0 30 93
- 0.478704 1 0 ack 40 ------- 0 2.0 0.0 30 93
r 0.480416 1 0 ack 40 ------- 0 2.0 0.0 28 92
r 0.488736 1 0 ack 40 ------- 0 2.0 0.0 30 93
+ 0.488736 0 1 tcp 1040 ------- 0 0.0 2.0 31 94
- 0.488736 0 1 tcp 1040 ------- 0 0.0 2.0 31 94
+ 0.488736 0 1 tcp 1040 ------- 0 0.0 2.0 32 95
- 0.489568 0 1 tcp 1040 ------- 0 0.0 2.0 32 95
r 0.499568 0 1 tcp 1040 ------- 0 0.0 2.0 31 94
+ 0.499568 1 2 tcp 1040 ------- 0 0.0 2.0 31 94
- 0.499568 1 2 tcp 1040 ------- 0 0.0 2.0 31 94
r 0.5004 0 1 tcp 1040 ------- 0 0.0 2.0 32 95
+ 0.5004 1 2 tcp 1040 ------- 0 0.0 2.0 32 95
- 0.507888 1 2 tcp 1040 ------- 0 0.0 2.0 32 95
r 0.517888 1 2 tcp 1040 ------- 0 0.0 2.0 31 94
+ 0.517888 2 1 ack 40 ------- 0 2.0 0.0 32 96
- 0.517888 2 1 ack 40 ------- 0 2.0 0.0 32 96
r 0.526208 1 2 tcp 1040 ------- 0 0.0 2.0 32 95
+ 0.526208 2 1 ack 40 ------- 0 2.0 0.0 32 97
- 0.526208 2 1 ack 40 ------- 0 2.0 0.0 32 97
r 0.528208 2 1 ack 40 ------- 0 2.0 0.0 32 96
+ 0.528208 1 0 ack 40 ------- 0 2.0 0.0 32 96
- 0.528208 1 0 ack 40 ------- 0 2.0 0.0 32 96
r 0.536528 2 1 ack 40 ------- 0 2.0 0.0 32 97
+ 0.536528 1 0 ack 40 ------- 0 2.0 0.0 32 97
- 0.536528 1 0 ack 40 ------- 0 2.0 0.0 32 97
r 0.53824 1 0 ack 40 ------- 0 2.0 0.0 32 96
+ 0.53824 0 1 tcp 1040 ------- 0 0.0 2.0 33 98
- 0.53824 0 1 tcp 1040 ------- 0 0.0 2.0 33 98
+ 0.53824 0 1 tcp 1040 ------- 0 0.0 2.0 34 99
+ 0.53824 0 1 tcp 1040 ------- 0 0.0 2.0 35 100
- 0.539072 0 1 tcp 1040 ------- 0 0.0 2.0 34 99
- 0.539904 0 1 tcp 1040 ------- 0 0.0 2.0 35 100
r 0.54656 1 0 ack 40 ------- 0 2.0 0.0 32 97
+ 0.54656 0 1 tcp 1040 ------- 0 0.0 2.0 36 101
- 0.54656 0 1 tcp 1040 ------- 0 0.0 2.0 36 101
r 0.549072 0 1 tcp 1040 ------- 0 0.0 2.0 33 98
+ 0.549072 1 2 tcp 1040 ------- 0 0.0 2.0 33 98
- 0.549072 1 2 tcp 1040 ------- 0 0.0 2.0 33 98
r 0.549904 0 1 tcp 1040 ------- 0 0.0 2.0 34 99
+ 0.549904 1 2 tcp 1040 ------- 0 0.0 2.0 34 99
r 0.550736 0 1 tcp 1040 ------- 0 0.0 2.0 35 100
+ 0.550736 1 2 tcp 1040 ------- 0 0.0 2.0 35 100
r 0.557392 0 1 tcp 1040 ------- 0 0.0 2.0 36 101
+ 0.557392 1 2 tcp 1040 ------- 0 0.0 2.0 36 101
- 0.557392 1 2 tcp 1040 ------- 0 0.0 2.0 34 99
- 0.565712 1 2 tcp 1040 ------- 0 0.0 2.0 35 100
r 0.567392 1 2 tcp 1040 ------- 0 0.0 2.0 33 98
+ 0.567392 2 1 ack 40 ------- 0 2.0 0.0 34 102
- 0.567392 2 1 ack 40 ------- 0 2.0 0.0 34 102
- 0.574032 1 2 tcp 1040 ------- 0 0.0 2.0 36 101
r 0.575712 1 2 tcp 1040 ------- 0 0.0 2.0 34 99
+ 0.575712 2 1 ack 40 ------- 0 2.0 0.0 34 103
- 0.575712 2 1 ack 40 ------- 0 2.0 0.0 34 103
r 0.577712 2 1 ack 40 ------- 0 2.0 0.0 34 102
+ 0.577712 1 0 ack 40 ------- 0 2.0 0.0 34 102
- 0.577712 1 0 ack 40 ------- 0 2.0 0.0 34 102
r 0.584032 1 2 tcp 1040 ------- 0 0.0 2.0 35 100
+ 0.584032 2 1 ack 40 ------- 0 2.0 0.0 36 104
- 0.584032 2 1 ack 40 ------- 0 2.0 0.0 36 104
r 0.586032 2 1 ack 40 ------- 0 2.0 0.0 34 103
+ 0.586032 1 0 ack 40 ------- 0 2.0 0.0 34 103
- 0.586032 1 0 ack 40 ------- 0 2.0 0.0 34 103
r 0.587744 1 0 ack 40 ------- 0 2.0 0.0 34 102
+ 0.587744 0 1 tcp 1040 ------- 0 0.0 2.0 37 105
- 0.587744 0 1 tcp 1040 ------- 0 0.0 2.0 37 105
+ 0.587744 0 1 tcp 1040 ------- 0 0.0 2.0 38 106
- 0.588576 0 1 tcp 1040 ------- 0 0.0 2.0 38 106
r 0.592352 1 2 tcp 1040 ------- 0 0.0 2.0 36 101
+ 0.592352 2 1 ack 40 ------- 0 2.0 0.0 36 107
- 0.592352 2 1 ack 40 ------- 0 2.0 0.0 36 107
r 0.594352 2 1 ack 40 ------- 0 2.0 0.0 36 104
+ 0.594352 1 0 ack 40 ------- 0 2.0 0.0 36 104
- 0.594352 1 0 ack 40 ------- 0 2.0 0.0 36 104
r 0.596064 1 0 ack 40 ------- 0 2.0 0.0 34 103
+ 0.596064 0 1 tcp 1040 ------- 0 0.0 2.0 39 108
- 0.596064 0 1 tcp 1040 ------- 0 0.0 2.0 39 108
r 0.598576 0 1 tcp 1040 ------- 0 0.0 2.0 37 105
+ 0.598576 1 2 tcp 1040 ------- 0 0.0 2.0 37 105
- 0.598576 1 2 tcp 1040 ------- 0 0.0 2.0 37 105
r 0.599408 0 1 tcp 1040 ------- 0 0.0 2.0 38 106
+ 0.599408 1 2 tcp 1040 ------- 0 0.0 2.0 38 106
r 0.602672 2 1 ack 40 ------- 0 2.0 0.0 36 107
+ 0.602672 1 0 ack 40 ------- 0 2.0 0.0 36 107
- 0.602672 1 0 ack 40 ------- 0 2.0 0.0 36 107
r 0.604384 1 0 ack 40 ------- 0 2.0 0.0 36 104
+ 0.604384 0 1 tcp 1040 ------- 0 0.0 2.0 40 109
- 0.604384 0 1 tcp 1040 ------- 0 0.0 2.0 40 109