+ 0.2 0 1 ping 64 ------- 1 0.0 5.0 -1 0
- 0.2 0 1 ping 64 ------- 1 0.0 5.0 -1 0
r 0.21512 0 1 ping 64 ------- 1 0.0 5.0 -1 0
+ 0.21512 1 2 ping 64 ------- 1 0.0 5.0 -1 0
- 0.21512 1 2 ping 64 ------- 1 0.0 5.0 -1 0
r 0.23024 1 2 ping 64 ------- 1 0.0 5.0 -1 0
+ 0.23024 2 3 ping 64 ------- 1 0.0 5.0 -1 0
- 0.23024 2 3 ping 64 ------- 1 0.0 5.0 -1 0
r 0.24536 2 3 ping 64 ------- 1 0.0 5.0 -1 0
+ 0.24536 3 4 ping 64 ------- 1 0.0 5.0 -1 0
- 0.24536 3 4 ping 64 ------- 1 0.0 5.0 -1 0
r 0.26048 3 4 ping 64 ------- 1 0.0 5.0 -1 0
+ 0.26048 4 5 ping 64 ------- 1 0.0 5.0 -1 0
- 0.26048 4 5 ping 64 ------- 1 0.0 5.0 -1 0
r 0.2756 4 5 ping 64 ------- 1 0.0 5.0 -1 0
+ 0.2756 5 4 ping 64 ------- 1 5.0 0.0 -1 1
- 0.2756 5 4 ping 64 ------- 1 5.0 0.0 -1 1
r 0.29072 5 4 ping 64 ------- 1 5.0 0.0 -1 1
+ 0.29072 4 3 ping 64 ------- 1 5.0 0.0 -1 1
- 0.29072 4 3 ping 64 ------- 1 5.0 0.0 -1 1
r 0.30584 4 3 ping 64 ------- 1 5.0 0.0 -1 1
+ 0.30584 3 2 ping 64 ------- 1 5.0 0.0 -1 1
- 0.30584 3 2 ping 64 ------- 1 5.0 0.0 -1 1
r 0.32096 3 2 ping 64 ------- 1 5.0 0.0 -1 1
+ 0.32096 2 1 ping 64 ------- 1 5.0 0.0 -1 1
- 0.32096 2 1 ping 64 ------- 1 5.0 0.0 -1 1
r 0.33608 2 1 ping 64 ------- 1 5.0 0.0 -1 1
+ 0.33608 1 0 ping 64 ------- 1 5.0 0.0 -1 1
- 0.33608 1 0 ping 64 ------- 1 5.0 0.0 -1 1
r 0.3512 1 0 ping 64 ------- 1 5.0 0.0 -1 1
+ 0.4 5 4 ping 64 ------- 1 5.0 0.0 -1 2
- 0.4 5 4 ping 64 ------- 1 5.0 0.0 -1 2
+ 0.4 2 3 tcp 40 ------- 2 2.0 4.0 0 3
- 0.4 2 3 tcp 40 ------- 2 2.0 4.0 0 3
r 0.4132 2 3 tcp 40 ------- 2 2.0 4.0 0 3
+ 0.4132 3 4 tcp 40 ------- 2 2.0 4.0 0 3
- 0.4132 3 4 tcp 40 ------- 2 2.0 4.0 0 3
r 0.41512 5 4 ping 64 ------- 1 5.0 0.0 -1 2
+ 0.41512 4 3 ping 64 ------- 1 5.0 0.0 -1 2
- 0.41512 4 3 ping 64 ------- 1 5.0 0.0 -1 2
r 0.4264 3 4 tcp 40 ------- 2 2.0 4.0 0 3
+ 0.4264 4 3 ack 40 ------- 2 4.0 2.0 0 4
- 0.4264 4 3 ack 40 ------- 2 4.0 2.0 0 4
r 0.43024 4 3 ping 64 ------- 1 5.0 0.0 -1 2
+ 0.43024 3 2 ping 64 ------- 1 5.0 0.0 -1 2
- 0.43024 3 2 ping 64 ------- 1 5.0 0.0 -1 2
r 0.4396 4 3 ack 40 ------- 2 4.0 2.0 0 4
+ 0.4396 3 2 ack 40 ------- 2 4.0 2.0 0 4
- 0.4396 3 2 ack 40 ------- 2 4.0 2.0 0 4
r 0.44536 3 2 ping 64 ------- 1 5.0 0.0 -1 2
+ 0.44536 2 1 ping 64 ------- 1 5.0 0.0 -1 2
- 0.44536 2 1 ping 64 ------- 1 5.0 0.0 -1 2
r 0.4528 3 2 ack 40 ------- 2 4.0 2.0 0 4
+ 0.4528 2 3 tcp 1040 ------- 2 2.0 4.0 1 5
- 0.4528 2 3 tcp 1040 ------- 2 2.0 4.0 1 5
+ 0.4528 2 3 tcp 1040 ------- 2 2.0 4.0 2 6
r 0.46048 2 1 ping 64 ------- 1 5.0 0.0 -1 2
+ 0.46048 1 0 ping 64 ------- 1 5.0 0.0 -1 2
- 0.46048 1 0 ping 64 ------- 1 5.0 0.0 -1 2
r 0.4756 1 0 ping 64 ------- 1 5.0 0.0 -1 2
+ 0.4756 0 1 ping 64 ------- 1 0.0 5.0 -1 7
- 0.4756 0 1 ping 64 ------- 1 0.0 5.0 -1 7
r 0.49072 0 1 ping 64 ------- 1 0.0 5.0 -1 7
+ 0.49072 1 2 ping 64 ------- 1 0.0 5.0 -1 7
- 0.49072 1 2 ping 64 ------- 1 0.0 5.0 -1 7
r 0.50584 1 2 ping 64 ------- 1 0.0 5.0 -1 7
+ 0.50584 2 3 ping 64 ------- 1 0.0 5.0 -1 7
d 0.50584 2 3 ping 64 ------- 1 0.0 5.0 -1 7
- 0.536 2 3 tcp 1040 ------- 2 2.0 4.0 2 6
r 0.546 2 3 tcp 1040 ------- 2 2.0 4.0 1 5
+ 0.546 3 4 tcp 1040 ------- 2 2.0 4.0 1 5
- 0.546 3 4 tcp 1040 ------- 2 2.0 4.0 1 5
r 0.6292 2 3 tcp 1040 ------- 2 2.0 4.0 2 6
+ 0.6292 3 4 tcp 1040 ------- 2 2.0 4.0 2 6
- 0.6292 3 4 tcp 1040 ------- 2 2.0 4.0 2 6
r 0.6392 3 4 tcp 1040 ------- 2 2.0 4.0 1 5
+ 0.6392 4 3 ack 40 ------- 2 4.0 2.0 1 8
- 0.6392 4 3 ack 40 ------- 2 4.0 2.0 1 8
r 0.6524 4 3 ack 40 ------- 2 4.0 2.0 1 8
+ 0.6524 3 2 ack 40 ------- 2 4.0 2.0 1 8
- 0.6524 3 2 ack 40 ------- 2 4.0 2.0 1 8
+ 0.6528 2 3 tcp 1040 ---A--- 2 2.0 4.0 1 9
- 0.6528 2 3 tcp 1040 ---A--- 2 2.0 4.0 1 9
r 0.6656 3 2 ack 40 ------- 2 4.0 2.0 1 8
+ 0.6656 2 3 tcp 1040 ------- 2 2.0 4.0 2 10
+ 0.6656 2 3 tcp 1040 ------- 2 2.0 4.0 3 11
d 0.6656 2 3 tcp 1040 ------- 2 2.0 4.0 3 11
r 0.7224 3 4 tcp 1040 ------- 2 2.0 4.0 2 6
+ 0.7224 4 3 ack 40 ------- 2 4.0 2.0 2 12
- 0.7224 4 3 ack 40 ------- 2 4.0 2.0 2 12
r 0.7356 4 3 ack 40 ------- 2 4.0 2.0 2 12
+ 0.7356 3 2 ack 40 ------- 2 4.0 2.0 2 12
- 0.7356 3 2 ack 40 ------- 2 4.0 2.0 2 12
- 0.736 2 3 tcp 1040 ------- 2 2.0 4.0 2 10
r 0.746 2 3 tcp 1040 ---A--- 2 2.0 4.0 1 9
+ 0.746 3 4 tcp 1040 ---A--- 2 2.0 4.0 1 9
- 0.746 3 4 tcp 1040 ---A--- 2 2.0 4.0 1 9
r 0.7488 3 2 ack 40 ------- 2 4.0 2.0 2 12
+ 0.7488 2 3 tcp 1040 ------- 2 2.0 4.0 4 13
+ 0.8 0 1 ping 64 ------- 1 0.0 5.0 -1 14
- 0.8 0 1 ping 64 ------- 1 0.0 5.0 -1 14
r 0.81512 0 1 ping 64 ------- 1 0.0 5.0 -1 14
+ 0.81512 1 2 ping 64 ------- 1 0.0 5.0 -1 14
- 0.81512 1 2 ping 64 ------- 1 0.0 5.0 -1 14
- 0.8192 2 3 tcp 1040 ------- 2 2.0 4.0 4 13
r 0.8292 2 3 tcp 1040 ------- 2 2.0 4.0 2 10
+ 0.8292 3 4 tcp 1040 ------- 2 2.0 4.0 2 10
- 0.8292 3 4 tcp 1040 ------- 2 2.0 4.0 2 10
r 0.83024 1 2 ping 64 ------- 1 0.0 5.0 -1 14
+ 0.83024 2 3 ping 64 ------- 1 0.0 5.0 -1 14
r 0.8392 3 4 tcp 1040 ---A--- 2 2.0 4.0 1 9
+ 0.8392 4 3 ack 40 ------- 2 4.0 2.0 2 15
- 0.8392 4 3 ack 40 ------- 2 4.0 2.0 2 15
r 0.8524 4 3 ack 40 ------- 2 4.0 2.0 2 15
+ 0.8524 3 2 ack 40 ------- 2 4.0 2.0 2 15
- 0.8524 3 2 ack 40 ------- 2 4.0 2.0 2 15
r 0.8656 3 2 ack 40 ------- 2 4.0 2.0 2 15
+ 0.8656 2 3 tcp 1040 ------- 2 2.0 4.0 5 16
d 0.8656 2 3 tcp 1040 ------- 2 2.0 4.0 5 16
- 0.9024 2 3 ping 64 ------- 1 0.0 5.0 -1 14
r 0.9124 2 3 tcp 1040 ------- 2 2.0 4.0 4 13
+ 0.9124 3 4 tcp 1040 ------- 2 2.0 4.0 4 13
- 0.9124 3 4 tcp 1040 ------- 2 2.0 4.0 4 13
r 0.91752 2 3 ping 64 ------- 1 0.0 5.0 -1 14
+ 0.91752 3 4 ping 64 ------- 1 0.0 5.0 -1 14
r 0.9224 3 4 tcp 1040 ------- 2 2.0 4.0 2 10
+ 0.9224 4 3 ack 40 ------- 2 4.0 2.0 2 17
- 0.9224 4 3 ack 40 ------- 2 4.0 2.0 2 17
r 0.9356 4 3 ack 40 ------- 2 4.0 2.0 2 17
+ 0.9356 3 2 ack 40 ------- 2 4.0 2.0 2 17
- 0.9356 3 2 ack 40 ------- 2 4.0 2.0 2 17
r 0.9488 3 2 ack 40 ------- 2 4.0 2.0 2 17
+ 0.9488 2 3 tcp 1040 ------- 2 2.0 4.0 6 18
- 0.9488 2 3 tcp 1040 ------- 2 2.0 4.0 6 18
- 0.9956 3 4 ping 64 ------- 1 0.0 5.0 -1 14
+ 1 5 4 ping 64 ------- 1 5.0 0.0 -1 19
- 1 5 4 ping 64 ------- 1 5.0 0.0 -1 19
r 1.0056 3 4 tcp 1040 ------- 2 2.0 4.0 4 13
+ 1.0056 4 3 ack 40 ------- 2 4.0 2.0 2 20
- 1.0056 4 3 ack 40 ------- 2 4.0 2.0 2 20
r 1.01072 3 4 ping 64 ------- 1 0.0 5.0 -1 14
+ 1.01072 4 5 ping 64 ------- 1 0.0 5.0 -1 14
- 1.01072 4 5 ping 64 ------- 1 0.0 5.0 -1 14
r 1.01512 5 4 ping 64 ------- 1 5.0 0.0 -1 19
+ 1.01512 4 3 ping 64 ------- 1 5.0 0.0 -1 19
- 1.01512 4 3 ping 64 ------- 1 5.0 0.0 -1 19
r 1.0188 4 3 ack 40 ------- 2 4.0 2.0 2 20
+ 1.0188 3 2 ack 40 ------- 2 4.0 2.0 2 20
- 1.0188 3 2 ack 40 ------- 2 4.0 2.0 2 20
r 1.02584 4 5 ping 64 ------- 1 0.0 5.0 -1 14
+ 1.02584 5 4 ping 64 ------- 1 5.0 0.0 -1 21
- 1.02584 5 4 ping 64 ------- 1 5.0 0.0 -1 21
r 1.03024 4 3 ping 64 ------- 1 5.0 0.0 -1 19
+ 1.03024 3 2 ping 64 ------- 1 5.0 0.0 -1 19
- 1.03024 3 2 ping 64 ------- 1 5.0 0.0 -1 19
r 1.032 3 2 ack 40 ------- 2 4.0 2.0 2 20
r 1.04096 5 4 ping 64 ------- 1 5.0 0.0 -1 21
+ 1.04096 4 3 ping 64 ------- 1 5.0 0.0 -1 21
- 1.04096 4 3 ping 64 ------- 1 5.0 0.0 -1 21
r 1.042 2 3 tcp 1040 ------- 2 2.0 4.0 6 18
+ 1.042 3 4 tcp 1040 ------- 2 2.0 4.0 6 18
- 1.042 3 4 tcp 1040 ------- 2 2.0 4.0 6 18
r 1.04536 3 2 ping 64 ------- 1 5.0 0.0 -1 19
+ 1.04536 2 1 ping 64 ------- 1 5.0 0.0 -1 19
- 1.04536 2 1 ping 64 ------- 1 5.0 0.0 -1 19
r 1.05608 4 3 ping 64 ------- 1 5.0 0.0 -1 21
+ 1.05608 3 2 ping 64 ------- 1 5.0 0.0 -1 21
- 1.05608 3 2 ping 64 ------- 1 5.0 0.0 -1 21
r 1.06048 2 1 ping 64 ------- 1 5.0 0.0 -1 19
+ 1.06048 1 0 ping 64 ------- 1 5.0 0.0 -1 19
- 1.06048 1 0 ping 64 ------- 1 5.0 0.0 -1 19
r 1.0712 3 2 ping 64 ------- 1 5.0 0.0 -1 21
+ 1.0712 2 1 ping 64 ------- 1 5.0 0.0 -1 21
- 1.0712 2 1 ping 64 ------- 1 5.0 0.0 -1 21
r 1.0756 1 0 ping 64 ------- 1 5.0 0.0 -1 19
+ 1.0756 0 1 ping 64 ------- 1 0.0 5.0 -1 22
- 1.0756 0 1 ping 64 ------- 1 0.0 5.0 -1 22
r 1.08632 2 1 ping 64 ------- 1 5.0 0.0 -1 21
+ 1.08632 1 0 ping 64 ------- 1 5.0 0.0 -1 21
- 1.08632 1 0 ping 64 ------- 1 5.0 0.0 -1 21
r 1.09072 0 1 ping 64 ------- 1 0.0 5.0 -1 22
+ 1.09072 1 2 ping 64 ------- 1 0.0 5.0 -1 22
- 1.09072 1 2 ping 64 ------- 1 0.0 5.0 -1 22
r 1.10144 1 0 ping 64 ------- 1 5.0 0.0 -1 21
r 1.10584 1 2 ping 64 ------- 1 0.0 5.0 -1 22
+ 1.10584 2 3 ping 64 ------- 1 0.0 5.0 -1 22
- 1.10584 2 3 ping 64 ------- 1 0.0 5.0 -1 22
r 1.12096 2 3 ping 64 ------- 1 0.0 5.0 -1 22
+ 1.12096 3 4 ping 64 ------- 1 0.0 5.0 -1 22
- 1.1252 3 4 ping 64 ------- 1 0.0 5.0 -1 22
r 1.1352 3 4 tcp 1040 ------- 2 2.0 4.0 6 18
+ 1.1352 4 3 ack 40 ------- 2 4.0 2.0 2 23
- 1.1352 4 3 ack 40 ------- 2 4.0 2.0 2 23
r 1.14032 3 4 ping 64 ------- 1 0.0 5.0 -1 22
+ 1.14032 4 5 ping 64 ------- 1 0.0 5.0 -1 22
- 1.14032 4 5 ping 64 ------- 1 0.0 5.0 -1 22
r 1.1484 4 3 ack 40 ------- 2 4.0 2.0 2 23
+ 1.1484 3 2 ack 40 ------- 2 4.0 2.0 2 23
- 1.1484 3 2 ack 40 ------- 2 4.0 2.0 2 23
+ 1.1488 2 3 tcp 1040 ---A--- 2 2.0 4.0 3 24
- 1.1488 2 3 tcp 1040 ---A--- 2 2.0 4.0 3 24
r 1.15544 4 5 ping 64 ------- 1 0.0 5.0 -1 22
r 1.1616 3 2 ack 40 ------- 2 4.0 2.0 2 23
r 1.242 2 3 tcp 1040 ---A--- 2 2.0 4.0 3 24
+ 1.242 3 4 tcp 1040 ---A--- 2 2.0 4.0 3 24
- 1.242 3 4 tcp 1040 ---A--- 2 2.0 4.0 3 24
r 1.3352 3 4 tcp 1040 ---A--- 2 2.0 4.0 3 24
+ 1.3352 4 3 ack 40 ------- 2 4.0 2.0 4 25
- 1.3352 4 3 ack 40 ------- 2 4.0 2.0 4 25
r 1.3484 4 3 ack 40 ------- 2 4.0 2.0 4 25
+ 1.3484 3 2 ack 40 ------- 2 4.0 2.0 4 25
- 1.3484 3 2 ack 40 ------- 2 4.0 2.0 4 25
r 1.3616 3 2 ack 40 ------- 2 4.0 2.0 4 25
+ 1.3616 2 3 tcp 1040 ------- 2 2.0 4.0 5 26
- 1.3616 2 3 tcp 1040 ------- 2 2.0 4.0 5 26
+ 1.3616 2 3 tcp 1040 ------- 2 2.0 4.0 6 27
+ 1.4 0 1 ping 64 ------- 1 0.0 5.0 -1 28
- 1.4 0 1 ping 64 ------- 1 0.0 5.0 -1 28
r 1.41512 0 1 ping 64 ------- 1 0.0 5.0 -1 28
+ 1.41512 1 2 ping 64 ------- 1 0.0 5.0 -1 28
- 1.41512 1 2 ping 64 ------- 1 0.0 5.0 -1 28
r 1.43024 1 2 ping 64 ------- 1 0.0 5.0 -1 28
+ 1.43024 2 3 ping 64 ------- 1 0.0 5.0 -1 28
d 1.43024 2 3 ping 64 ------- 1 0.0 5.0 -1 28
- 1.4448 2 3 tcp 1040 ------- 2 2.0 4.0 6 27
r 1.4548 2 3 tcp 1040 ------- 2 2.0 4.0 5 26
+ 1.4548 3 4 tcp 1040 ------- 2 2.0 4.0 5 26
- 1.4548 3 4 tcp 1040 ------- 2 2.0 4.0 5 26
r 1.538 2 3 tcp 1040 ------- 2 2.0 4.0 6 27
+ 1.538 3 4 tcp 1040 ------- 2 2.0 4.0 6 27
- 1.538 3 4 tcp 1040 ------- 2 2.0 4.0 6 27
r 1.548 3 4 tcp 1040 ------- 2 2.0 4.0 5 26
+ 1.548 4 3 ack 40 ------- 2 4.0 2.0 6 29
- 1.548 4 3 ack 40 ------- 2 4.0 2.0 6 29
r 1.5612 4 3 ack 40 ------- 2 4.0 2.0 6 29
+ 1.5612 3 2 ack 40 ------- 2 4.0 2.0 6 29
- 1.5612 3 2 ack 40 ------- 2 4.0 2.0 6 29
r 1.5744 3 2 ack 40 ------- 2 4.0 2.0 6 29
+ 1.5744 2 3 tcp 1040 ------- 2 2.0 4.0 7 30
- 1.5744 2 3 tcp 1040 ------- 2 2.0 4.0 7 30
+ 1.5744 2 3 tcp 1040 ------- 2 2.0 4.0 8 31
+ 1.6 5 4 ping 64 ------- 1 5.0 0.0 -1 32
- 1.6 5 4 ping 64 ------- 1 5.0 0.0 -1 32
r 1.61512 5 4 ping 64 ------- 1 5.0 0.0 -1 32
+ 1.61512 4 3 ping 64 ------- 1 5.0 0.0 -1 32
- 1.61512 4 3 ping 64 ------- 1 5.0 0.0 -1 32
r 1.63024 4 3 ping 64 ------- 1 5.0 0.0 -1 32
+ 1.63024 3 2 ping 64 ------- 1 5.0 0.0 -1 32
- 1.63024 3 2 ping 64 ------- 1 5.0 0.0 -1 32
r 1.6312 3 4 tcp 1040 ------- 2 2.0 4.0 6 27
+ 1.6312 4 3 ack 40 ------- 2 4.0 2.0 6 33
- 1.6312 4 3 ack 40 ------- 2 4.0 2.0 6 33
r 1.6444 4 3 ack 40 ------- 2 4.0 2.0 6 33
+ 1.6444 3 2 ack 40 ------- 2 4.0 2.0 6 33
- 1.6444 3 2 ack 40 ------- 2 4.0 2.0 6 33
r 1.64536 3 2 ping 64 ------- 1 5.0 0.0 -1 32
+ 1.64536 2 1 ping 64 ------- 1 5.0 0.0 -1 32
- 1.64536 2 1 ping 64 ------- 1 5.0 0.0 -1 32
- 1.6576 2 3 tcp 1040 ------- 2 2.0 4.0 8 31
r 1.6576 3 2 ack 40 ------- 2 4.0 2.0 6 33
+ 1.6576 2 3 tcp 1040 ------- 2 2.0 4.0 9 34
r 1.66048 2 1 ping 64 ------- 1 5.0 0.0 -1 32
+ 1.66048 1 0 ping 64 ------- 1 5.0 0.0 -1 32
- 1.66048 1 0 ping 64 ------- 1 5.0 0.0 -1 32
r 1.6676 2 3 tcp 1040 ------- 2 2.0 4.0 7 30
+ 1.6676 3 4 tcp 1040 ------- 2 2.0 4.0 7 30
- 1.6676 3 4 tcp 1040 ------- 2 2.0 4.0 7 30
r 1.6756 1 0 ping 64 ------- 1 5.0 0.0 -1 32
+ 1.6756 0 1 ping 64 ------- 1 0.0 5.0 -1 35
- 1.6756 0 1 ping 64 ------- 1 0.0 5.0 -1 35
r 1.69072 0 1 ping 64 ------- 1 0.0 5.0 -1 35
+ 1.69072 1 2 ping 64 ------- 1 0.0 5.0 -1 35
- 1.69072 1 2 ping 64 ------- 1 0.0 5.0 -1 35
r 1.70584 1 2 ping 64 ------- 1 0.0 5.0 -1 35
+ 1.70584 2 3 ping 64 ------- 1 0.0 5.0 -1 35
d 1.70584 2 3 ping 64 ------- 1 0.0 5.0 -1 35
- 1.7408 2 3 tcp 1040 ------- 2 2.0 4.0 9 34
r 1.7508 2 3 tcp 1040 ------- 2 2.0 4.0 8 31
+ 1.7508 3 4 tcp 1040 ------- 2 2.0 4.0 8 31
- 1.7508 3 4 tcp 1040 ------- 2 2.0 4.0 8 31
r 1.7608 3 4 tcp 1040 ------- 2 2.0 4.0 7 30
+ 1.7608 4 3 ack 40 ------- 2 4.0 2.0 7 36
- 1.7608 4 3 ack 40 ------- 2 4.0 2.0 7 36
r 1.774 4 3 ack 40 ------- 2 4.0 2.0 7 36
+ 1.774 3 2 ack 40 ------- 2 4.0 2.0 7 36
- 1.774 3 2 ack 40 ------- 2 4.0 2.0 7 36
r 1.7872 3 2 ack 40 ------- 2 4.0 2.0 7 36
