+ 0.1 0 2 tcp 40 ------- 1 0.0 4.0 0 0
- 0.1 0 2 tcp 40 ------- 1 0.0 4.0 0 0
r 0.11016 0 2 tcp 40 ------- 1 0.0 4.0 0 0
+ 0.11016 2 3 tcp 40 ------- 1 0.0 4.0 0 0
- 0.11016 2 3 tcp 40 ------- 1 0.0 4.0 0 0
r 0.21048 2 3 tcp 40 ------- 1 0.0 4.0 0 0
h 0.21048 3 6 tcp 40 ------- 1 0.0 4.0 0 0
+ 0.25048 3 6 tcp 40 ------- 1 0.0 4.0 0 0
- 0.25048 3 6 tcp 40 ------- 1 0.0 4.0 0 0
d 0.250484 5 6 tcp 40 ------- 1 0.0 4.0 0 0
r 0.290484 6 4 tcp 40 ------- 1 0.0 4.0 0 0
h 0.290484 4 6 ack 40 ------- 1 4.0 0.0 0 1
+ 0.330484 4 6 ack 40 ------- 1 4.0 0.0 0 1
- 0.330484 4 6 ack 40 ------- 1 4.0 0.0 0 1
d 0.330488 5 6 ack 40 ------- 1 4.0 0.0 0 1
r 0.370488 6 3 ack 40 ------- 1 4.0 0.0 0 1
+ 0.370488 3 2 ack 40 ------- 1 4.0 0.0 0 1
- 0.370488 3 2 ack 40 ------- 1 4.0 0.0 0 1
r 0.470808 3 2 ack 40 ------- 1 4.0 0.0 0 1
+ 0.470808 2 0 ack 40 ------- 1 4.0 0.0 0 1
- 0.470808 2 0 ack 40 ------- 1 4.0 0.0 0 1
r 0.480968 2 0 ack 40 ------- 1 4.0 0.0 0 1
+ 0.480968 0 2 tcp 592 ------- 1 0.0 4.0 1 2
- 0.480968 0 2 tcp 592 ------- 1 0.0 4.0 1 2
+ 0.480968 0 2 tcp 592 ------- 1 0.0 4.0 2 3
- 0.483336 0 2 tcp 592 ------- 1 0.0 4.0 2 3
r 0.493336 0 2 tcp 592 ------- 1 0.0 4.0 1 2
+ 0.493336 2 3 tcp 592 ------- 1 0.0 4.0 1 2
- 0.493336 2 3 tcp 592 ------- 1 0.0 4.0 1 2
r 0.495704 0 2 tcp 592 ------- 1 0.0 4.0 2 3
+ 0.495704 2 3 tcp 592 ------- 1 0.0 4.0 2 3
- 0.498072 2 3 tcp 592 ------- 1 0.0 4.0 2 3
h 0.5 5 6 tcp 40 ------- 2 5.0 1.0 0 4
+ 0.54 5 6 tcp 40 ------- 2 5.0 1.0 0 4
- 0.54 5 6 tcp 40 ------- 2 5.0 1.0 0 4
d 0.540004 4 6 tcp 40 ------- 2 5.0 1.0 0 4
r 0.580004 6 3 tcp 40 ------- 2 5.0 1.0 0 4
+ 0.580004 3 2 tcp 40 ------- 2 5.0 1.0 0 4
- 0.580004 3 2 tcp 40 ------- 2 5.0 1.0 0 4
r 0.598072 2 3 tcp 592 ------- 1 0.0 4.0 1 2
h 0.598072 3 6 tcp 592 ------- 1 0.0 4.0 1 2
r 0.602808 2 3 tcp 592 ------- 1 0.0 4.0 2 3
h 0.602808 3 6 tcp 592 ------- 1 0.0 4.0 2 3
+ 0.638072 3 6 tcp 592 ------- 1 0.0 4.0 1 2
- 0.638072 3 6 tcp 592 ------- 1 0.0 4.0 1 2
d 0.638076 5 6 tcp 592 ------- 1 0.0 4.0 1 2
+ 0.642808 3 6 tcp 592 ------- 1 0.0 4.0 2 3
- 0.642808 3 6 tcp 592 ------- 1 0.0 4.0 2 3
d 0.642812 5 6 tcp 592 ------- 1 0.0 4.0 2 3
r 0.678076 6 4 tcp 592 ------- 1 0.0 4.0 1 2
r 0.680324 3 2 tcp 40 ------- 2 5.0 1.0 0 4
+ 0.680324 2 1 tcp 40 ------- 2 5.0 1.0 0 4
- 0.680324 2 1 tcp 40 ------- 2 5.0 1.0 0 4
r 0.682812 6 4 tcp 592 ------- 1 0.0 4.0 2 3
h 0.682812 4 6 ack 40 ------- 1 4.0 0.0 2 5
r 0.690484 2 1 tcp 40 ------- 2 5.0 1.0 0 4
+ 0.690484 1 2 ack 40 ------- 2 1.0 5.0 0 6
- 0.690484 1 2 ack 40 ------- 2 1.0 5.0 0 6
r 0.700644 1 2 ack 40 ------- 2 1.0 5.0 0 6
+ 0.700644 2 3 ack 40 ------- 2 1.0 5.0 0 6
- 0.700644 2 3 ack 40 ------- 2 1.0 5.0 0 6
+ 0.722812 4 6 ack 40 ------- 1 4.0 0.0 2 5
- 0.722812 4 6 ack 40 ------- 1 4.0 0.0 2 5
d 0.722816 5 6 ack 40 ------- 1 4.0 0.0 2 5
r 0.762816 6 3 ack 40 ------- 1 4.0 0.0 2 5
+ 0.762816 3 2 ack 40 ------- 1 4.0 0.0 2 5
- 0.762816 3 2 ack 40 ------- 1 4.0 0.0 2 5
r 0.800964 2 3 ack 40 ------- 2 1.0 5.0 0 6
h 0.800964 3 6 ack 40 ------- 2 1.0 5.0 0 6
+ 0.840964 3 6 ack 40 ------- 2 1.0 5.0 0 6
- 0.840964 3 6 ack 40 ------- 2 1.0 5.0 0 6
d 0.840968 4 6 ack 40 ------- 2 1.0 5.0 0 6
r 0.863136 3 2 ack 40 ------- 1 4.0 0.0 2 5
+ 0.863136 2 0 ack 40 ------- 1 4.0 0.0 2 5
- 0.863136 2 0 ack 40 ------- 1 4.0 0.0 2 5
r 0.873296 2 0 ack 40 ------- 1 4.0 0.0 2 5
+ 0.873296 0 2 tcp 592 ------- 1 0.0 4.0 3 7
- 0.873296 0 2 tcp 592 ------- 1 0.0 4.0 3 7
+ 0.873296 0 2 tcp 592 ------- 1 0.0 4.0 4 8
+ 0.873296 0 2 tcp 592 ------- 1 0.0 4.0 5 9
- 0.875664 0 2 tcp 592 ------- 1 0.0 4.0 4 8
- 0.878032 0 2 tcp 592 ------- 1 0.0 4.0 5 9
r 0.880968 6 5 ack 40 ------- 2 1.0 5.0 0 6
h 0.880968 5 6 tcp 592 ------- 2 5.0 1.0 1 10
h 0.880968 5 6 tcp 592 ------- 2 5.0 1.0 2 11
r 0.885664 0 2 tcp 592 ------- 1 0.0 4.0 3 7
+ 0.885664 2 3 tcp 592 ------- 1 0.0 4.0 3 7
- 0.885664 2 3 tcp 592 ------- 1 0.0 4.0 3 7
r 0.888032 0 2 tcp 592 ------- 1 0.0 4.0 4 8
+ 0.888032 2 3 tcp 592 ------- 1 0.0 4.0 4 8
- 0.8904 2 3 tcp 592 ------- 1 0.0 4.0 4 8
r 0.8904 0 2 tcp 592 ------- 1 0.0 4.0 5 9
+ 0.8904 2 3 tcp 592 ------- 1 0.0 4.0 5 9
- 0.895136 2 3 tcp 592 ------- 1 0.0 4.0 5 9
+ 0.920968 5 6 tcp 592 ------- 2 5.0 1.0 1 10
- 0.920968 5 6 tcp 592 ------- 2 5.0 1.0 1 10
+ 0.920968 5 6 tcp 592 ------- 2 5.0 1.0 2 11
d 0.920972 4 6 tcp 592 ------- 2 5.0 1.0 1 10
- 0.923592 5 6 tcp 592 ------- 2 5.0 1.0 2 11
d 0.923596 4 6 tcp 592 ------- 2 5.0 1.0 2 11
r 0.960972 6 3 tcp 592 ------- 2 5.0 1.0 1 10
+ 0.960972 3 2 tcp 592 ------- 2 5.0 1.0 1 10
- 0.960972 3 2 tcp 592 ------- 2 5.0 1.0 1 10
r 0.963596 6 3 tcp 592 ------- 2 5.0 1.0 2 11
+ 0.963596 3 2 tcp 592 ------- 2 5.0 1.0 2 11
- 0.965708 3 2 tcp 592 ------- 2 5.0 1.0 2 11
r 0.9904 2 3 tcp 592 ------- 1 0.0 4.0 3 7
h 0.9904 3 6 tcp 592 ------- 1 0.0 4.0 3 7
r 0.995136 2 3 tcp 592 ------- 1 0.0 4.0 4 8
h 0.995136 3 6 tcp 592 ------- 1 0.0 4.0 4 8
r 0.999872 2 3 tcp 592 ------- 1 0.0 4.0 5 9
h 0.999872 3 6 tcp 592 ------- 1 0.0 4.0 5 9
+ 1.0304 3 6 tcp 592 ------- 1 0.0 4.0 3 7
- 1.0304 3 6 tcp 592 ------- 1 0.0 4.0 3 7
d 1.030404 5 6 tcp 592 ------- 1 0.0 4.0 3 7
+ 1.035136 3 6 tcp 592 ------- 1 0.0 4.0 4 8
- 1.035136 3 6 tcp 592 ------- 1 0.0 4.0 4 8
d 1.03514 5 6 tcp 592 ------- 1 0.0 4.0 4 8
+ 1.039872 3 6 tcp 592 ------- 1 0.0 4.0 5 9
- 1.039872 3 6 tcp 592 ------- 1 0.0 4.0 5 9
d 1.039876 5 6 tcp 592 ------- 1 0.0 4.0 5 9
r 1.065708 3 2 tcp 592 ------- 2 5.0 1.0 1 10
+ 1.065708 2 1 tcp 592 ------- 2 5.0 1.0 1 10
- 1.065708 2 1 tcp 592 ------- 2 5.0 1.0 1 10
r 1.070404 6 4 tcp 592 ------- 1 0.0 4.0 3 7
r 1.070444 3 2 tcp 592 ------- 2 5.0 1.0 2 11
+ 1.070444 2 1 tcp 592 ------- 2 5.0 1.0 2 11
- 1.070444 2 1 tcp 592 ------- 2 5.0 1.0 2 11
r 1.07514 6 4 tcp 592 ------- 1 0.0 4.0 4 8
h 1.07514 4 6 ack 40 ------- 1 4.0 0.0 4 12
r 1.078076 2 1 tcp 592 ------- 2 5.0 1.0 1 10
r 1.079876 6 4 tcp 592 ------- 1 0.0 4.0 5 9
r 1.082812 2 1 tcp 592 ------- 2 5.0 1.0 2 11
+ 1.082812 1 2 ack 40 ------- 2 1.0 5.0 2 13
- 1.082812 1 2 ack 40 ------- 2 1.0 5.0 2 13
r 1.092972 1 2 ack 40 ------- 2 1.0 5.0 2 13
+ 1.092972 2 3 ack 40 ------- 2 1.0 5.0 2 13
- 1.092972 2 3 ack 40 ------- 2 1.0 5.0 2 13
+ 1.11514 4 6 ack 40 ------- 1 4.0 0.0 4 12
- 1.11514 4 6 ack 40 ------- 1 4.0 0.0 4 12
d 1.115144 5 6 ack 40 ------- 1 4.0 0.0 4 12
r 1.155144 6 3 ack 40 ------- 1 4.0 0.0 4 12
+ 1.155144 3 2 ack 40 ------- 1 4.0 0.0 4 12
- 1.155144 3 2 ack 40 ------- 1 4.0 0.0 4 12
h 1.179876 4 6 ack 40 ------- 1 4.0 0.0 5 14
r 1.193292 2 3 ack 40 ------- 2 1.0 5.0 2 13
h 1.193292 3 6 ack 40 ------- 2 1.0 5.0 2 13
+ 1.219876 4 6 ack 40 ------- 1 4.0 0.0 5 14
- 1.219876 4 6 ack 40 ------- 1 4.0 0.0 5 14
d 1.21988 5 6 ack 40 ------- 1 4.0 0.0 5 14
+ 1.233292 3 6 ack 40 ------- 2 1.0 5.0 2 13
- 1.233292 3 6 ack 40 ------- 2 1.0 5.0 2 13
d 1.233296 4 6 ack 40 ------- 2 1.0 5.0 2 13
r 1.255464 3 2 ack 40 ------- 1 4.0 0.0 4 12
+ 1.255464 2 0 ack 40 ------- 1 4.0 0.0 4 12
- 1.255464 2 0 ack 40 ------- 1 4.0 0.0 4 12
r 1.25988 6 3 ack 40 ------- 1 4.0 0.0 5 14
+ 1.25988 3 2 ack 40 ------- 1 4.0 0.0 5 14
- 1.25988 3 2 ack 40 ------- 1 4.0 0.0 5 14
r 1.265624 2 0 ack 40 ------- 1 4.0 0.0 4 12
+ 1.265624 0 2 tcp 592 ------- 1 0.0 4.0 6 15
- 1.265624 0 2 tcp 592 ------- 1 0.0 4.0 6 15
+ 1.265624 0 2 tcp 592 ------- 1 0.0 4.0 7 16
+ 1.265624 0 2 tcp 592 ------- 1 0.0 4.0 8 17
- 1.267992 0 2 tcp 592 ------- 1 0.0 4.0 7 16
- 1.27036 0 2 tcp 592 ------- 1 0.0 4.0 8 17
r 1.273296 6 5 ack 40 ------- 2 1.0 5.0 2 13
h 1.273296 5 6 tcp 592 ------- 2 5.0 1.0 3 18
h 1.273296 5 6 tcp 592 ------- 2 5.0 1.0 4 19
h 1.273296 5 6 tcp 592 ------- 2 5.0 1.0 5 20
r 1.277992 0 2 tcp 592 ------- 1 0.0 4.0 6 15
+ 1.277992 2 3 tcp 592 ------- 1 0.0 4.0 6 15
- 1.277992 2 3 tcp 592 ------- 1 0.0 4.0 6 15
r 1.28036 0 2 tcp 592 ------- 1 0.0 4.0 7 16
+ 1.28036 2 3 tcp 592 ------- 1 0.0 4.0 7 16
r 1.282728 0 2 tcp 592 ------- 1 0.0 4.0 8 17
+ 1.282728 2 3 tcp 592 ------- 1 0.0 4.0 8 17
- 1.282728 2 3 tcp 592 ------- 1 0.0 4.0 7 16
- 1.287464 2 3 tcp 592 ------- 1 0.0 4.0 8 17
+ 1.313296 5 6 tcp 592 ------- 2 5.0 1.0 3 18
- 1.313296 5 6 tcp 592 ------- 2 5.0 1.0 3 18
+ 1.313296 5 6 tcp 592 ------- 2 5.0 1.0 4 19
+ 1.313296 5 6 tcp 592 ------- 2 5.0 1.0 5 20
d 1.3133 4 6 tcp 592 ------- 2 5.0 1.0 3 18
- 1.31592 5 6 tcp 592 ------- 2 5.0 1.0 4 19
d 1.315924 4 6 tcp 592 ------- 2 5.0 1.0 4 19
- 1.318544 5 6 tcp 592 ------- 2 5.0 1.0 5 20
d 1.318548 4 6 tcp 592 ------- 2 5.0 1.0 5 20
r 1.3533 6 3 tcp 592 ------- 2 5.0 1.0 3 18
+ 1.3533 3 2 tcp 592 ------- 2 5.0 1.0 3 18
- 1.3533 3 2 tcp 592 ------- 2 5.0 1.0 3 18
r 1.355924 6 3 tcp 592 ------- 2 5.0 1.0 4 19
+ 1.355924 3 2 tcp 592 ------- 2 5.0 1.0 4 19
- 1.358036 3 2 tcp 592 ------- 2 5.0 1.0 4 19
r 1.358548 6 3 tcp 592 ------- 2 5.0 1.0 5 20
+ 1.358548 3 2 tcp 592 ------- 2 5.0 1.0 5 20
r 1.3602 3 2 ack 40 ------- 1 4.0 0.0 5 14
+ 1.3602 2 0 ack 40 ------- 1 4.0 0.0 5 14
- 1.3602 2 0 ack 40 ------- 1 4.0 0.0 5 14
- 1.362772 3 2 tcp 592 ------- 2 5.0 1.0 5 20
r 1.37036 2 0 ack 40 ------- 1 4.0 0.0 5 14
+ 1.37036 0 2 tcp 592 ------- 1 0.0 4.0 9 21
- 1.37036 0 2 tcp 592 ------- 1 0.0 4.0 9 21
+ 1.37036 0 2 tcp 592 ------- 1 0.0 4.0 10 22
- 1.372728 0 2 tcp 592 ------- 1 0.0 4.0 10 22
r 1.382728 2 3 tcp 592 ------- 1 0.0 4.0 6 15
h 1.382728 3 6 tcp 592 ------- 1 0.0 4.0 6 15
r 1.382728 0 2 tcp 592 ------- 1 0.0 4.0 9 21
+ 1.382728 2 3 tcp 592 ------- 1 0.0 4.0 9 21
- 1.382728 2 3 tcp 592 ------- 1 0.0 4.0 9 21
r 1.385096 0 2 tcp 592 ------- 1 0.0 4.0 10 22
+ 1.385096 2 3 tcp 592 ------- 1 0.0 4.0 10 22
r 1.387464 2 3 tcp 592 ------- 1 0.0 4.0 7 16
h 1.387464 3 6 tcp 592 ------- 1 0.0 4.0 7 16
- 1.387464 2 3 tcp 592 ------- 1 0.0 4.0 10 22
r 1.3922 2 3 tcp 592 ------- 1 0.0 4.0 8 17
h 1.3922 3 6 tcp 592 ------- 1 0.0 4.0 8 17
+ 1.422728 3 6 tcp 592 ------- 1 0.0 4.0 6 15
- 1.422728 3 6 tcp 592 ------- 1 0.0 4.0 6 15
d 1.422732 5 6 tcp 592 ------- 1 0.0 4.0 6 15
+ 1.427464 3 6 tcp 592 ------- 1 0.0 4.0 7 16
- 1.427464 3 6 tcp 592 ------- 1 0.0 4.0 7 16
d 1.427468 5 6 tcp 592 ------- 1 0.0 4.0 7 16
+ 1.4322 3 6 tcp 592 ------- 1 0.0 4.0 8 17
- 1.4322 3 6 tcp 592 ------- 1 0.0 4.0 8 17
d 1.432204 5 6 tcp 592 ------- 1 0.0 4.0 8 17
r 1.458036 3 2 tcp 592 ------- 2 5.0 1.0 3 18
+ 1.458036 2 1 tcp 592 ------- 2 5.0 1.0 3 18
- 1.458036 2 1 tcp 592 ------- 2 5.0 1.0 3 18
r 1.462732 6 4 tcp 592 ------- 1 0.0 4.0 6 15
r 1.462772 3 2 tcp 592 ------- 2 5.0 1.0 4 19
+ 1.462772 2 1 tcp 592 ------- 2 5.0 1.0 4 19
- 1.462772 2 1 tcp 592 ------- 2 5.0 1.0 4 19
r 1.467468 6 4 tcp 592 ------- 1 0.0 4.0 7 16
h 1.467468 4 6 ack 40 ------- 1 4.0 0.0 7 23
r 1.467508 3 2 tcp 592 ------- 2 5.0 1.0 5 20
+ 1.467508 2 1 tcp 592 ------- 2 5.0 1.0 5 20
- 1.467508 2 1 tcp 592 ------- 2 5.0 1.0 5 20
r 1.470404 2 1 tcp 592 ------- 2 5.0 1.0 3 18
r 1.472204 6 4 tcp 592 ------- 1 0.0 4.0 8 17
r 1.47514 2 1 tcp 592 ------- 2 5.0 1.0 4 19
+ 1.47514 1 2 ack 40 ------- 2 1.0 5.0 4 24
- 1.47514 1 2 ack 40 ------- 2 1.0 5.0 4 24
r 1.479876 2 1 tcp 592 ------- 2 5.0 1.0 5 20
r 1.4853 1 2 ack 40 ------- 2 1.0 5.0 4 24
+ 1.4853 2 3 ack 40 ------- 2 1.0 5.0 4 24
- 1.4853 2 3 ack 40 ------- 2 1.0 5.0 4 24
r 1.487464 2 3 tcp 592 ------- 1 0.0 4.0 9 21
h 1.487464 3 6 tcp 592 ------- 1 0.0 4.0 9 21
r 1.4922 2 3 tcp 592 ------- 1 0.0 4.0 10 22
h 1.4922 3 6 tcp 592 ------- 1 0.0 4.0 10 22
+ 1.507468 4 6 ack 40 ------- 1 4.0 0.0 7 23
- 1.507468 4 6 ack 40 ------- 1 4.0 0.0 7 23
d 1.507472 5 6 ack 40 ------- 1 4.0 0.0 7 23
+ 1.527464 3 6 tcp 592 ------- 1 0.0 4.0 9 21
- 1.527464 3 6 tcp 592 ------- 1 0.0 4.0 9 21
d 1.527468 5 6 tcp 592 ------- 1 0.0 4.0 9 21
+ 1.5322 3 6 tcp 592 ------- 1 0.0 4.0 10 22
- 1.5322 3 6 tcp 592 ------- 1 0.0 4.0 10 22
d 1.532204 5 6 tcp 592 ------- 1 0.0 4.0 10 22
r 1.547472 6 3 ack 40 ------- 1 4.0 0.0 7 23
+ 1.547472 3 2 ack 40 ------- 1 4.0 0.0 7 23
- 1.547472 3 2 ack 40 ------- 1 4.0 0.0 7 23
r 1.567468 6 4 tcp 592 ------- 1 0.0 4.0 9 21
h 1.567468 4 6 ack 40 ------- 1 4.0 0.0 9 25
r 1.572204 6 4 tcp 592 ------- 1 0.0 4.0 10 22
+ 1.579876 1 2 ack 40 ------- 2 1.0 5.0 5 26
- 1.579876 1 2 ack 40 ------- 2 1.0 5.0 5 26
r 1.58562 2 3 ack 40 ------- 2 1.0 5.0 4 24
h 1.58562 3 6 ack 40 ------- 2 1.0 5.0 4 24
r 1.590036 1 2 ack 40 ------- 2 1.0 5.0 5 26
+ 1.590036 2 3 ack 40 ------- 2 1.0 5.0 5 26
- 1.590036 2 3 ack 40 ------- 2 1.0 5.0 5 26
+ 1.607468 4 6 ack 40 ------- 1 4.0 0.0 9 25
- 1.607468 4 6 ack 40 ------- 1 4.0 0.0 9 25
d 1.607472 5 6 ack 40 ------- 1 4.0 0.0 9 25
+ 1.62562 3 6 ack 40 ------- 2 1.0 5.0 4 24
- 1.62562 3 6 ack 40 ------- 2 1.0 5.0 4 24
d 1.625624 4 6 ack 40 ------- 2 1.0 5.0 4 24
r 1.647472 6 3 ack 40 ------- 1 4.0 0.0 9 25
+ 1.647472 3 2 ack 40 ------- 1 4.0 0.0 9 25
- 1.647472 3 2 ack 40 ------- 1 4.0 0.0 9 25
r 1.647792 3 2 ack 40 ------- 1 4.0 0.0 7 23
+ 1.647792 2 0 ack 40 ------- 1 4.0 0.0 7 23
- 1.647792 2 0 ack 40 ------- 1 4.0 0.0 7 23
r 1.657952 2 0 ack 40 ------- 1 4.0 0.0 7 23
+ 1.657952 0 2 tcp 592 ------- 1 0.0 4.0 11 27
- 1.657952 0 2 tcp 592 ------- 1 0.0 4.0 11 27
+ 1.657952 0 2 tcp 592 ------- 1 0.0 4.0 12 28
+ 1.657952 0 2 tcp 592 ------- 1 0.0 4.0 13 29
- 1.66032 0 2 tcp 592 ------- 1 0.0 4.0 12 28
- 1.662688 0 2 tcp 592 ------- 1 0.0 4.0 13 29
r 1.665624 6 5 ack 40 ------- 2 1.0 5.0 4 24
h 1.665624 5 6 tcp 592 ------- 2 5.0 1.0 6 30
h 1.665624 5 6 tcp 592 ------- 2 5.0 1.0 7 31
h 1.665624 5 6 tcp 592 ------- 2 5.0 1.0 8 32
r 1.67032 0 2 tcp 592 ------- 1 0.0 4.0 11 27
+ 1.67032 2 3 tcp 592 ------- 1 0.0 4.0 11 27
- 1.67032 2 3 tcp 592 ------- 1 0.0 4.0 11 27
h 1.672204 4 6 ack 40 ------- 1 4.0 0.0 10 33
r 1.672688 0 2 tcp 592 ------- 1 0.0 4.0 12 28
+ 1.672688 2 3 tcp 592 ------- 1 0.0 4.0 12 28
r 1.675056 0 2 tcp 592 ------- 1 0.0 4.0 13 29
+ 1.675056 2 3 tcp 592 ------- 1 0.0 4.0 13 29
- 1.675056 2 3 tcp 592 ------- 1 0.0 4.0 12 28
- 1.679792 2 3 tcp 592 ------- 1 0.0 4.0 13 29
r 1.690356 2 3 ack 40 ------- 2 1.0 5.0 5 26
h 1.690356 3 6 ack 40 ------- 2 1.0 5.0 5 26
+ 1.705624 5 6 tcp 592 ------- 2 5.0 1.0 6 30
- 1.705624 5 6 tcp 592 ------- 2 5.0 1.0 6 30
+ 1.705624 5 6 tcp 592 ------- 2 5.0 1.0 7 31
+ 1.705624 5 6 tcp 592 ------- 2 5.0 1.0 8 32
d 1.705628 4 6 tcp 592 ------- 2 5.0 1.0 6 30
- 1.708248 5 6 tcp 592 ------- 2 5.0 1.0 7 31
d 1.708252 4 6 tcp 592 ------- 2 5.0 1.0 7 31
- 1.710872 5 6 tcp 592 ------- 2 5.0 1.0 8 32
d 1.710876 4 6 tcp 592 ------- 2 5.0 1.0 8 32
+ 1.712204 4 6 ack 40 ------- 1 4.0 0.0 10 33
- 1.712204 4 6 ack 40 ------- 1 4.0 0.0 10 33
d 1.712208 5 6 ack 40 ------- 1 4.0 0.0 10 33
+ 1.730356 3 6 ack 40 ------- 2 1.0 5.0 5 26
- 1.730356 3 6 ack 40 ------- 2 1.0 5.0 5 26
d 1.73036 4 6 ack 40 ------- 2 1.0 5.0 5 26
r 1.745628 6 3 tcp 592 ------- 2 5.0 1.0 6 30
+ 1.745628 3 2 tcp 592 ------- 2 5.0 1.0 6 30
- 1.745628 3 2 tcp 592 ------- 2 5.0 1.0 6 30
r 1.747792 3 2 ack 40 ------- 1 4.0 0.0 9 25
+ 1.747792 2 0 ack 40 ------- 1 4.0 0.0 9 25
- 1.747792 2 0 ack 40 ------- 1 4.0 0.0 9 25
r 1.748252 6 3 tcp 592 ------- 2 5.0 1.0 7 31
+ 1.748252 3 2 tcp 592 ------- 2 5.0 1.0 7 31
- 1.750364 3 2 tcp 592 ------- 2 5.0 1.0 7 31
r 1.750876 6 3 tcp 592 ------- 2 5.0 1.0 8 32
+ 1.750876 3 2 tcp 592 ------- 2 5.0 1.0 8 32
r 1.752208 6 3 ack 40 ------- 1 4.0 0.0 10 33
+ 1.752208 3 2 ack 40 ------- 1 4.0 0.0 10 33
- 1.7551 3 2 tcp 592 ------- 2 5.0 1.0 8 32
r 1.757952 2 0 ack 40 ------- 1 4.0 0.0 9 25
+ 1.757952 0 2 tcp 592 ------- 1 0.0 4.0 14 34
- 1.757952 0 2 tcp 592 ------- 1 0.0 4.0 14 34
+ 1.757952 0 2 tcp 592 ------- 1 0.0 4.0 15 35
+ 1.757952 0 2 tcp 592 ------- 1 0.0 4.0 16 36
- 1.759836 3 2 ack 40 ------- 1 4.0 0.0 10 33
- 1.76032 0 2 tcp 592 ------- 1 0.0 4.0 15 35
- 1.762688 0 2 tcp 592 ------- 1 0.0 4.0 16 36
r 1.77032 0 2 tcp 592 ------- 1 0.0 4.0 14 34
+ 1.77032 2 3 tcp 592 ------- 1 0.0 4.0 14 34
- 1.77032 2 3 tcp 592 ------- 1 0.0 4.0 14 34
r 1.77036 6 5 ack 40 ------- 2 1.0 5.0 5 26
h 1.77036 5 6 tcp 592 ------- 2 5.0 1.0 9 37
h 1.77036 5 6 tcp 592 ------- 2 5.0 1.0 10 38
r 1.772688 0 2 tcp 592 ------- 1 0.0 4.0 15 35
+ 1.772688 2 3 tcp 592 ------- 1 0.0 4.0 15 35
r 1.775056 2 3 tcp 592 ------- 1 0.0 4.0 11 27
h 1.775056 3 6 tcp 592 ------- 1 0.0 4.0 11 27
r 1.775056 0 2 tcp 592 ------- 1 0.0 4.0 16 36
+ 1.775056 2 3 tcp 592 ------- 1 0.0 4.0 16 36
- 1.775056 2 3 tcp 592 ------- 1 0.0 4.0 15 35
r 1.779792 2 3 tcp 592 ------- 1 0.0 4.0 12 28
h 1.779792 3 6 tcp 592 ------- 1 0.0 4.0 12 28
- 1.779792 2 3 tcp 592 ------- 1 0.0 4.0 16 36
r 1.784528 2 3 tcp 592 ------- 1 0.0 4.0 13 29
h 1.784528 3 6 tcp 592 ------- 1 0.0 4.0 13 29
+ 1.81036 5 6 tcp 592 ------- 2 5.0 1.0 9 37
- 1.81036 5 6 tcp 592 ------- 2 5.0 1.0 9 37
+ 1.81036 5 6 tcp 592 ------- 2 5.0 1.0 10 38
d 1.810364 4 6 tcp 592 ------- 2 5.0 1.0 9 37
- 1.812984 5 6 tcp 592 ------- 2 5.0 1.0 10 38
d 1.812988 4 6 tcp 592 ------- 2 5.0 1.0 10 38
+ 1.815056 3 6 tcp 592 ------- 1 0.0 4.0 11 27
- 1.815056 3 6 tcp 592 ------- 1 0.0 4.0 11 27
d 1.81506 5 6 tcp 592 ------- 1 0.0 4.0 11 27
+ 1.819792 3 6 tcp 592 ------- 1 0.0 4.0 12 28
- 1.819792 3 6 tcp 592 ------- 1 0.0 4.0 12 28
d 1.819796 5 6 tcp 592 ------- 1 0.0 4.0 12 28
+ 1.824528 3 6 tcp 592 ------- 1 0.0 4.0 13 29
- 1.824528 3 6 tcp 592 ------- 1 0.0 4.0 13 29
d 1.824532 5 6 tcp 592 ------- 1 0.0 4.0 13 29
r 1.850364 3 2 tcp 592 ------- 2 5.0 1.0 6 30
+ 1.850364 2 1 tcp 592 ------- 2 5.0 1.0 6 30
- 1.850364 2 1 tcp 592 ------- 2 5.0 1.0 6 30
r 1.850364 6 3 tcp 592 ------- 2 5.0 1.0 9 37
+ 1.850364 3 2 tcp 592 ------- 2 5.0 1.0 9 37
- 1.850364 3 2 tcp 592 ------- 2 5.0 1.0 9 37
r 1.852988 6 3 tcp 592 ------- 2 5.0 1.0 10 38
+ 1.852988 3 2 tcp 592 ------- 2 5.0 1.0 10 38
r 1.85506 6 4 tcp 592 ------- 1 0.0 4.0 11 27
r 1.8551 3 2 tcp 592 ------- 2 5.0 1.0 7 31
+ 1.8551 2 1 tcp 592 ------- 2 5.0 1.0 7 31
- 1.8551 2 1 tcp 592 ------- 2 5.0 1.0 7 31
- 1.8551 3 2 tcp 592 ------- 2 5.0 1.0 10 38
r 1.859796 6 4 tcp 592 ------- 1 0.0 4.0 12 28
h 1.859796 4 6 ack 40 ------- 1 4.0 0.0 12 39
r 1.859836 3 2 tcp 592 ------- 2 5.0 1.0 8 32
+ 1.859836 2 1 tcp 592 ------- 2 5.0 1.0 8 32
- 1.859836 2 1 tcp 592 ------- 2 5.0 1.0 8 32
r 1.860156 3 2 ack 40 ------- 1 4.0 0.0 10 33
+ 1.860156 2 0 ack 40 ------- 1 4.0 0.0 10 33
- 1.860156 2 0 ack 40 ------- 1 4.0 0.0 10 33
r 1.862732 2 1 tcp 592 ------- 2 5.0 1.0 6 30
r 1.864532 6 4 tcp 592 ------- 1 0.0 4.0 13 29
r 1.867468 2 1 tcp 592 ------- 2 5.0 1.0 7 31
+ 1.867468 1 2 ack 40 ------- 2 1.0 5.0 7 40
- 1.867468 1 2 ack 40 ------- 2 1.0 5.0 7 40
r 1.870316 2 0 ack 40 ------- 1 4.0 0.0 10 33
+ 1.870316 0 2 tcp 592 ------- 1 0.0 4.0 17 41
- 1.870316 0 2 tcp 592 ------- 1 0.0 4.0 17 41
+ 1.870316 0 2 tcp 592 ------- 1 0.0 4.0 18 42
r 1.872204 2 1 tcp 592 ------- 2 5.0 1.0 8 32
- 1.872684 0 2 tcp 592 ------- 1 0.0 4.0 18 42
r 1.875056 2 3 tcp 592 ------- 1 0.0 4.0 14 34
h 1.875056 3 6 tcp 592 ------- 1 0.0 4.0 14 34
r 1.877628 1 2 ack 40 ------- 2 1.0 5.0 7 40
+ 1.877628 2 3 ack 40 ------- 2 1.0 5.0 7 40
- 1.877628 2 3 ack 40 ------- 2 1.0 5.0 7 40
r 1.879792 2 3 tcp 592 ------- 1 0.0 4.0 15 35
h 1.879792 3 6 tcp 592 ------- 1 0.0 4.0 15 35
r 1.882684 0 2 tcp 592 ------- 1 0.0 4.0 17 41
+ 1.882684 2 3 tcp 592 ------- 1 0.0 4.0 17 41
- 1.882684 2 3 tcp 592 ------- 1 0.0 4.0 17 41
r 1.884528 2 3 tcp 592 ------- 1 0.0 4.0 16 36
h 1.884528 3 6 tcp 592 ------- 1 0.0 4.0 16 36
r 1.885052 0 2 tcp 592 ------- 1 0.0 4.0 18 42
+ 1.885052 2 3 tcp 592 ------- 1 0.0 4.0 18 42
- 1.88742 2 3 tcp 592 ------- 1 0.0 4.0 18 42
+ 1.899796 4 6 ack 40 ------- 1 4.0 0.0 12 39
- 1.899796 4 6 ack 40 ------- 1 4.0 0.0 12 39
d 1.8998 5 6 ack 40 ------- 1 4.0 0.0 12 39
+ 1.915056 3 6 tcp 592 ------- 1 0.0 4.0 14 34
- 1.915056 3 6 tcp 592 ------- 1 0.0 4.0 14 34
d 1.91506 5 6 tcp 592 ------- 1 0.0 4.0 14 34
+ 1.919792 3 6 tcp 592 ------- 1 0.0 4.0 15 35
- 1.919792 3 6 tcp 592 ------- 1 0.0 4.0 15 35
d 1.919796 5 6 tcp 592 ------- 1 0.0 4.0 15 35
+ 1.924528 3 6 tcp 592 ------- 1 0.0 4.0 16 36
- 1.924528 3 6 tcp 592 ------- 1 0.0 4.0 16 36
d 1.924532 5 6 tcp 592 ------- 1 0.0 4.0 16 36
r 1.9398 6 3 ack 40 ------- 1 4.0 0.0 12 39
+ 1.9398 3 2 ack 40 ------- 1 4.0 0.0 12 39
- 1.9398 3 2 ack 40 ------- 1 4.0 0.0 12 39
r 1.95506 6 4 tcp 592 ------- 1 0.0 4.0 14 34
h 1.95506 4 6 ack 40 ------- 1 4.0 0.0 14 43
r 1.9551 3 2 tcp 592 ------- 2 5.0 1.0 9 37
+ 1.9551 2 1 tcp 592 ------- 2 5.0 1.0 9 37
- 1.9551 2 1 tcp 592 ------- 2 5.0 1.0 9 37
r 1.959796 6 4 tcp 592 ------- 1 0.0 4.0 15 35
r 1.959836 3 2 tcp 592 ------- 2 5.0 1.0 10 38
+ 1.959836 2 1 tcp 592 ------- 2 5.0 1.0 10 38
- 1.959836 2 1 tcp 592 ------- 2 5.0 1.0 10 38
r 1.964532 6 4 tcp 592 ------- 1 0.0 4.0 16 36
h 1.964532 4 6 ack 40 ------- 1 4.0 0.0 16 44
r 1.967468 2 1 tcp 592 ------- 2 5.0 1.0 9 37
+ 1.967468 1 2 ack 40 ------- 2 1.0 5.0 9 45
- 1.967468 1 2 ack 40 ------- 2 1.0 5.0 9 45
r 1.972204 2 1 tcp 592 ------- 2 5.0 1.0 10 38
r 1.977628 1 2 ack 40 ------- 2 1.0 5.0 9 45
+ 1.977628 2 3 ack 40 ------- 2 1.0 5.0 9 45
- 1.977628 2 3 ack 40 ------- 2 1.0 5.0 9 45
r 1.977948 2 3 ack 40 ------- 2 1.0 5.0 7 40
h 1.977948 3 6 ack 40 ------- 2 1.0 5.0 7 40
r 1.98742 2 3 tcp 592 ------- 1 0.0 4.0 17 41
h 1.98742 3 6 tcp 592 ------- 1 0.0 4.0 17 41
r 1.992156 2 3 tcp 592 ------- 1 0.0 4.0 18 42
h 1.992156 3 6 tcp 592 ------- 1 0.0 4.0 18 42
+ 1.99506 4 6 ack 40 ------- 1 4.0 0.0 14 43
- 1.99506 4 6 ack 40 ------- 1 4.0 0.0 14 43
d 1.995064 5 6 ack 40 ------- 1 4.0 0.0 14 43
+ 2.004532 4 6 ack 40 ------- 1 4.0 0.0 16 44
- 2.004532 4 6 ack 40 ------- 1 4.0 0.0 16 44
d 2.004536 5 6 ack 40 ------- 1 4.0 0.0 16 44
+ 2.017948 3 6 ack 40 ------- 2 1.0 5.0 7 40
- 2.017948 3 6 ack 40 ------- 2 1.0 5.0 7 40
d 2.017952 4 6 ack 40 ------- 2 1.0 5.0 7 40
+ 2.02742 3 6 tcp 592 ------- 1 0.0 4.0 17 41
- 2.02742 3 6 tcp 592 ------- 1 0.0 4.0 17 41
d 2.027424 5 6 tcp 592 ------- 1 0.0 4.0 17 41
+ 2.032156 3 6 tcp 592 ------- 1 0.0 4.0 18 42
- 2.032156 3 6 tcp 592 ------- 1 0.0 4.0 18 42
d 2.03216 5 6 tcp 592 ------- 1 0.0 4.0 18 42
r 2.035064 6 3 ack 40 ------- 1 4.0 0.0 14 43
+ 2.035064 3 2 ack 40 ------- 1 4.0 0.0 14 43
- 2.035064 3 2 ack 40 ------- 1 4.0 0.0 14 43
r 2.04012 3 2 ack 40 ------- 1 4.0 0.0 12 39
+ 2.04012 2 0 ack 40 ------- 1 4.0 0.0 12 39
- 2.04012 2 0 ack 40 ------- 1 4.0 0.0 12 39
r 2.044536 6 3 ack 40 ------- 1 4.0 0.0 16 44
+ 2.044536 3 2 ack 40 ------- 1 4.0 0.0 16 44
- 2.044536 3 2 ack 40 ------- 1 4.0 0.0 16 44
r 2.05028 2 0 ack 40 ------- 1 4.0 0.0 12 39
+ 2.05028 0 2 tcp 592 ------- 1 0.0 4.0 19 46
- 2.05028 0 2 tcp 592 ------- 1 0.0 4.0 19 46
+ 2.05028 0 2 tcp 592 ------- 1 0.0 4.0 20 47
+ 2.05028 0 2 tcp 592 ------- 1 0.0 4.0 21 48
- 2.052648 0 2 tcp 592 ------- 1 0.0 4.0 20 47
- 2.055016 0 2 tcp 592 ------- 1 0.0 4.0 21 48
r 2.057952 6 5 ack 40 ------- 2 1.0 5.0 7 40
h 2.057952 5 6 tcp 592 ------- 2 5.0 1.0 11 49
h 2.057952 5 6 tcp 592 ------- 2 5.0 1.0 12 50
h 2.057952 5 6 tcp 592 ------- 2 5.0 1.0 13 51
r 2.062648 0 2 tcp 592 ------- 1 0.0 4.0 19 46
+ 2.062648 2 3 tcp 592 ------- 1 0.0 4.0 19 46
- 2.062648 2 3 tcp 592 ------- 1 0.0 4.0 19 46
r 2.065016 0 2 tcp 592 ------- 1 0.0 4.0 20 47
+ 2.065016 2 3 tcp 592 ------- 1 0.0 4.0 20 47
- 2.067384 2 3 tcp 592 ------- 1 0.0 4.0 20 47
r 2.067384 0 2 tcp 592 ------- 1 0.0 4.0 21 48
+ 2.067384 2 3 tcp 592 ------- 1 0.0 4.0 21 48
r 2.067424 6 4 tcp 592 ------- 1 0.0 4.0 17 41
- 2.07212 2 3 tcp 592 ------- 1 0.0 4.0 21 48
r 2.07216 6 4 tcp 592 ------- 1 0.0 4.0 18 42
h 2.07216 4 6 ack 40 ------- 1 4.0 0.0 18 52
+ 2.072204 1 2 ack 40 ------- 2 1.0 5.0 10 53
- 2.072204 1 2 ack 40 ------- 2 1.0 5.0 10 53
r 2.077948 2 3 ack 40 ------- 2 1.0 5.0 9 45
h 2.077948 3 6 ack 40 ------- 2 1.0 5.0 9 45
r 2.082364 1 2 ack 40 ------- 2 1.0 5.0 10 53
+ 2.082364 2 3 ack 40 ------- 2 1.0 5.0 10 53
- 2.082364 2 3 ack 40 ------- 2 1.0 5.0 10 53
+ 2.097952 5 6 tcp 592 ------- 2 5.0 1.0 11 49
- 2.097952 5 6 tcp 592 ------- 2 5.0 1.0 11 49
+ 2.097952 5 6 tcp 592 ------- 2 5.0 1.0 12 50
+ 2.097952 5 6 tcp 592 ------- 2 5.0 1.0 13 51
d 2.097956 4 6 tcp 592 ------- 2 5.0 1.0 11 49
- 2.100576 5 6 tcp 592 ------- 2 5.0 1.0 12 50
d 2.10058 4 6 tcp 592 ------- 2 5.0 1.0 12 50
- 2.1032 5 6 tcp 592 ------- 2 5.0 1.0 13 51
d 2.103204 4 6 tcp 592 ------- 2 5.0 1.0 13 51
+ 2.11216 4 6 ack 40 ------- 1 4.0 0.0 18 52
- 2.11216 4 6 ack 40 ------- 1 4.0 0.0 18 52
d 2.112164 5 6 ack 40 ------- 1 4.0 0.0 18 52
+ 2.117948 3 6 ack 40 ------- 2 1.0 5.0 9 45
- 2.117948 3 6 ack 40 ------- 2 1.0 5.0 9 45
d 2.117952 4 6 ack 40 ------- 2 1.0 5.0 9 45
r 2.135384 3 2 ack 40 ------- 1 4.0 0.0 14 43
+ 2.135384 2 0 ack 40 ------- 1 4.0 0.0 14 43
- 2.135384 2 0 ack 40 ------- 1 4.0 0.0 14 43
r 2.137956 6 3 tcp 592 ------- 2 5.0 1.0 11 49
+ 2.137956 3 2 tcp 592 ------- 2 5.0 1.0 11 49
- 2.137956 3 2 tcp 592 ------- 2 5.0 1.0 11 49
r 2.14058 6 3 tcp 592 ------- 2 5.0 1.0 12 50
+ 2.14058 3 2 tcp 592 ------- 2 5.0 1.0 12 50
- 2.142692 3 2 tcp 592 ------- 2 5.0 1.0 12 50
r 2.143204 6 3 tcp 592 ------- 2 5.0 1.0 13 51
+ 2.143204 3 2 tcp 592 ------- 2 5.0 1.0 13 51
r 2.144856 3 2 ack 40 ------- 1 4.0 0.0 16 44
+ 2.144856 2 0 ack 40 ------- 1 4.0 0.0 16 44
- 2.144856 2 0 ack 40 ------- 1 4.0 0.0 16 44
r 2.145544 2 0 ack 40 ------- 1 4.0 0.0 14 43
+ 2.145544 0 2 tcp 592 ------- 1 0.0 4.0 22 54
- 2.145544 0 2 tcp 592 ------- 1 0.0 4.0 22 54
+ 2.145544 0 2 tcp 592 ------- 1 0.0 4.0 23 55
+ 2.145544 0 2 tcp 592 ------- 1 0.0 4.0 24 56
- 2.147428 3 2 tcp 592 ------- 2 5.0 1.0 13 51
- 2.147912 0 2 tcp 592 ------- 1 0.0 4.0 23 55
- 2.15028 0 2 tcp 592 ------- 1 0.0 4.0 24 56
r 2.152164 6 3 ack 40 ------- 1 4.0 0.0 18 52
+ 2.152164 3 2 ack 40 ------- 1 4.0 0.0 18 52
- 2.152164 3 2 ack 40 ------- 1 4.0 0.0 18 52
r 2.155016 2 0 ack 40 ------- 1 4.0 0.0 16 44
+ 2.155016 0 2 tcp 592 ------- 1 0.0 4.0 25 57
- 2.155016 0 2 tcp 592 ------- 1 0.0 4.0 25 57
+ 2.155016 0 2 tcp 592 ------- 1 0.0 4.0 26 58
+ 2.155016 0 2 tcp 592 ------- 1 0.0 4.0 27 59
- 2.157384 0 2 tcp 592 ------- 1 0.0 4.0 26 58
r 2.157912 0 2 tcp 592 ------- 1 0.0 4.0 22 54
+ 2.157912 2 3 tcp 592 ------- 1 0.0 4.0 22 54
- 2.157912 2 3 tcp 592 ------- 1 0.0 4.0 22 54
r 2.157952 6 5 ack 40 ------- 2 1.0 5.0 9 45
h 2.157952 5 6 tcp 592 ------- 2 5.0 1.0 14 60
h 2.157952 5 6 tcp 592 ------- 2 5.0 1.0 15 61
h 2.157952 5 6 tcp 592 ------- 2 5.0 1.0 16 62
- 2.159752 0 2 tcp 592 ------- 1 0.0 4.0 27 59
r 2.16028 0 2 tcp 592 ------- 1 0.0 4.0 23 55
+ 2.16028 2 3 tcp 592 ------- 1 0.0 4.0 23 55
- 2.162648 2 3 tcp 592 ------- 1 0.0 4.0 23 55
r 2.162648 0 2 tcp 592 ------- 1 0.0 4.0 24 56
+ 2.162648 2 3 tcp 592 ------- 1 0.0 4.0 24 56
- 2.167384 2 3 tcp 592 ------- 1 0.0 4.0 24 56
r 2.167384 2 3 tcp 592 ------- 1 0.0 4.0 19 46
h 2.167384 3 6 tcp 592 ------- 1 0.0 4.0 19 46
r 2.167384 0 2 tcp 592 ------- 1 0.0 4.0 25 57
+ 2.167384 2 3 tcp 592 ------- 1 0.0 4.0 25 57
r 2.169752 0 2 tcp 592 ------- 1 0.0 4.0 26 58
+ 2.169752 2 3 tcp 592 ------- 1 0.0 4.0 26 58
- 2.17212 2 3 tcp 592 ------- 1 0.0 4.0 25 57
r 2.17212 2 3 tcp 592 ------- 1 0.0 4.0 20 47
h 2.17212 3 6 tcp 592 ------- 1 0.0 4.0 20 47
r 2.17212 0 2 tcp 592 ------- 1 0.0 4.0 27 59
+ 2.17212 2 3 tcp 592 ------- 1 0.0 4.0 27 59
- 2.176856 2 3 tcp 592 ------- 1 0.0 4.0 26 58
r 2.176856 2 3 tcp 592 ------- 1 0.0 4.0 21 48
h 2.176856 3 6 tcp 592 ------- 1 0.0 4.0 21 48
- 2.181592 2 3 tcp 592 ------- 1 0.0 4.0 27 59
r 2.182684 2 3 ack 40 ------- 2 1.0 5.0 10 53
h 2.182684 3 6 ack 40 ------- 2 1.0 5.0 10 53
+ 2.197952 5 6 tcp 592 ------- 2 5.0 1.0 14 60
- 2.197952 5 6 tcp 592 ------- 2 5.0 1.0 14 60
+ 2.197952 5 6 tcp 592 ------- 2 5.0 1.0 15 61
+ 2.197952 5 6 tcp 592 ------- 2 5.0 1.0 16 62
d 2.197956 4 6 tcp 592 ------- 2 5.0 1.0 14 60
- 2.200576 5 6 tcp 592 ------- 2 5.0 1.0 15 61
d 2.20058 4 6 tcp 592 ------- 2 5.0 1.0 15 61
- 2.2032 5 6 tcp 592 ------- 2 5.0 1.0 16 62
d 2.203204 4 6 tcp 592 ------- 2 5.0 1.0 16 62
+ 2.207384 3 6 tcp 592 ------- 1 0.0 4.0 19 46
- 2.207384 3 6 tcp 592 ------- 1 0.0 4.0 19 46
d 2.207388 5 6 tcp 592 ------- 1 0.0 4.0 19 46
+ 2.21212 3 6 tcp 592 ------- 1 0.0 4.0 20 47
- 2.21212 3 6 tcp 592 ------- 1 0.0 4.0 20 47
d 2.212124 5 6 tcp 592 ------- 1 0.0 4.0 20 47
+ 2.216856 3 6 tcp 592 ------- 1 0.0 4.0 21 48
- 2.216856 3 6 tcp 592 ------- 1 0.0 4.0 21 48
d 2.21686 5 6 tcp 592 ------- 1 0.0 4.0 21 48
+ 2.222684 3 6 ack 40 ------- 2 1.0 5.0 10 53
- 2.222684 3 6 ack 40 ------- 2 1.0 5.0 10 53
d 2.222688 4 6 ack 40 ------- 2 1.0 5.0 10 53
r 2.237956 6 3 tcp 592 ------- 2 5.0 1.0 14 60
+ 2.237956 3 2 tcp 592 ------- 2 5.0 1.0 14 60
- 2.237956 3 2 tcp 592 ------- 2 5.0 1.0 14 60
r 2.24058 6 3 tcp 592 ------- 2 5.0 1.0 15 61
+ 2.24058 3 2 tcp 592 ------- 2 5.0 1.0 15 61
r 2.242692 3 2 tcp 592 ------- 2 5.0 1.0 11 49
+ 2.242692 2 1 tcp 592 ------- 2 5.0 1.0 11 49
- 2.242692 2 1 tcp 592 ------- 2 5.0 1.0 11 49
- 2.242692 3 2 tcp 592 ------- 2 5.0 1.0 15 61
r 2.243204 6 3 tcp 592 ------- 2 5.0 1.0 16 62
+ 2.243204 3 2 tcp 592 ------- 2 5.0 1.0 16 62
r 2.247388 6 4 tcp 592 ------- 1 0.0 4.0 19 46
r 2.247428 3 2 tcp 592 ------- 2 5.0 1.0 12 50
+ 2.247428 2 1 tcp 592 ------- 2 5.0 1.0 12 50
- 2.247428 2 1 tcp 592 ------- 2 5.0 1.0 12 50
- 2.247428 3 2 tcp 592 ------- 2 5.0 1.0 16 62
r 2.252124 6 4 tcp 592 ------- 1 0.0 4.0 20 47
h 2.252124 4 6 ack 40 ------- 1 4.0 0.0 20 63
r 2.252164 3 2 tcp 592 ------- 2 5.0 1.0 13 51
+ 2.252164 2 1 tcp 592 ------- 2 5.0 1.0 13 51
- 2.252164 2 1 tcp 592 ------- 2 5.0 1.0 13 51
r 2.252484 3 2 ack 40 ------- 1 4.0 0.0 18 52
+ 2.252484 2 0 ack 40 ------- 1 4.0 0.0 18 52
- 2.252484 2 0 ack 40 ------- 1 4.0 0.0 18 52
r 2.25506 2 1 tcp 592 ------- 2 5.0 1.0 11 49
r 2.25686 6 4 tcp 592 ------- 1 0.0 4.0 21 48
r 2.259796 2 1 tcp 592 ------- 2 5.0 1.0 12 50
+ 2.259796 1 2 ack 40 ------- 2 1.0 5.0 12 64
- 2.259796 1 2 ack 40 ------- 2 1.0 5.0 12 64
r 2.262644 2 0 ack 40 ------- 1 4.0 0.0 18 52
+ 2.262644 0 2 tcp 592 ------- 1 0.0 4.0 28 65
- 2.262644 0 2 tcp 592 ------- 1 0.0 4.0 28 65
+ 2.262644 0 2 tcp 592 ------- 1 0.0 4.0 29 66
+ 2.262644 0 2 tcp 592 ------- 1 0.0 4.0 30 67
r 2.262648 2 3 tcp 592 ------- 1 0.0 4.0 22 54
h 2.262648 3 6 tcp 592 ------- 1 0.0 4.0 22 54
r 2.262688 6 5 ack 40 ------- 2 1.0 5.0 10 53
h 2.262688 5 6 tcp 592 ------- 2 5.0 1.0 17 68
h 2.262688 5 6 tcp 592 ------- 2 5.0 1.0 18 69
r 2.264532 2 1 tcp 592 ------- 2 5.0 1.0 13 51